
     Program PWSCF v.5.4.0 starts on 25Jun2018 at 17:56:17 

     This program is part of the open-source Quantum ESPRESSO suite
     for quantum simulation of materials; please cite
         "P. Giannozzi et al., J. Phys.:Condens. Matter 21 395502 (2009);
          URL http://www.quantum-espresso.org", 
     in publications or presentations arising from this work. More details at
     http://www.quantum-espresso.org/quote

     Parallel version (MPI), running on    20 processors
     R & G space division:  proc/nbgrp/npool/nimage =      20
     Reading input from /scratch/beachk2/Jarvis/As4Se6/Lat/relax.in

     Current dimensions of program PWSCF are:
     Max number of different atomic species (ntypx) = 10
     Max number of k-points (npk) =  40000
     Max angular momentum in pseudopotentials (lmaxx) =  3
               file As.pbe-mt_fhi.UPF: wavefunction(s)  4f renormalized
               file Se.pbe-mt_fhi.UPF: wavefunction(s)  4f renormalized

     Subspace diagonalization in iterative solution of the eigenvalue problem:
     one sub-group per band group will be used
     scalapack distributed-memory algorithm (size of sub-group:  3*  3 procs)

 
     Parallelization info
     --------------------
     sticks:   dense  smooth     PW     G-vecs:    dense   smooth      PW
     Min         210     210     59                38130    38130    5619
     Max         211     211     60                38141    38141    5626
     Sum        4209    4209   1183               762667   762667  112417
 


     bravais-lattice index     =            0
     lattice parameter (alat)  =       8.2738  a.u.
     unit-cell volume          =    9643.8962 (a.u.)^3
     number of atoms/cell      =           10
     number of atomic types    =            2
     number of electrons       =        56.00
     number of Kohn-Sham states=           34
     kinetic-energy cutoff     =      70.0000  Ry
     charge density cutoff     =     280.0000  Ry
     convergence threshold     =      1.0E-08
     mixing beta               =       0.7000
     number of iterations used =            8  plain     mixing
     Exchange-correlation      = PBE ( 1  4  3  4 0 0)
     nstep                     =           50


     celldm(1)=   8.273761  celldm(2)=   0.000000  celldm(3)=   0.000000
     celldm(4)=   0.000000  celldm(5)=   0.000000  celldm(6)=   0.000000

     crystal axes: (cart. coord. in units of alat)
               a(1) = (   0.999994  -0.003426   0.000000 )  
               a(2) = (  -0.990421   2.767839   0.000000 )  
               a(3) = (   0.000000   0.000000   6.159397 )  

     reciprocal axes: (cart. coord. in units 2 pi/alat)
               b(1) = (  1.001233  0.358273  0.000000 )  
               b(2) = (  0.001239  0.361736  0.000000 )  
               b(3) = (  0.000000  0.000000  0.162354 )  


     PseudoPot. # 1 for As read from file:
     /home/beachk2/PSEUDO/upf_files/PBE/MartinsTroullier/As.pbe-mt_fhi.UPF
     MD5 check sum: 9c0f5dd9d369d21dd57660ed5a27ee1c
     Pseudo is Norm-conserving, Zval =  5.0
     Generated using FHI98PP, converted with fhi2upf.x v.5.0.2
     Using radial grid of  531 points,  3 beta functions with: 
                l(1) =   0
                l(2) =   1
                l(3) =   3

     PseudoPot. # 2 for Se read from file:
     /home/beachk2/PSEUDO/upf_files/PBE/MartinsTroullier/Se.pbe-mt_fhi.UPF
     MD5 check sum: 9f5eeb2c03cdb8d988106d0b99ed4143
     Pseudo is Norm-conserving, Zval =  6.0
     Generated using FHI98PP, converted with fhi2upf.x v.5.0.2
     Using radial grid of  533 points,  3 beta functions with: 
                l(1) =   0
                l(2) =   1
                l(3) =   3

     atomic species   valence    mass     pseudopotential
        As             5.00    74.92160     As( 1.00)
        Se             6.00    78.96000     Se( 1.00)

     No symmetry found


                                    s                        frac. trans.

      isym =  1     identity                                     

 cryst.   s( 1) = (     1          0          0      )
                  (     0          1          0      )
                  (     0          0          1      )

 cart.    s( 1) = (  1.0000000  0.0000000  0.0000000 )
                  ( -0.0000000  1.0000000  0.0000000 )
                  (  0.0000000  0.0000000  1.0000000 )


   Cartesian axes

     site n.     atom                  positions (alat units)
         1           As  tau(   1) = (  -0.3797909   2.1058707   0.7835554  )
         2           As  tau(   2) = (   0.1154197   0.7219513   0.4689395  )
         3           As  tau(   3) = (  -0.8776608   2.7195473   0.4688225  )
         4           As  tau(   4) = (  -0.3824502   1.3356280   0.7836724  )
         5           Se  tau(   5) = (  -0.0230239   2.5057803   0.9587902  )
         6           Se  tau(   6) = (   0.4721867   1.1218609   0.2937108  )
         7           Se  tau(   7) = (  -0.5236340   2.3171829   0.2935815  )
         8           Se  tau(   8) = (  -0.0284234   0.9332635   0.9589196  )
         9           Se  tau(   9) = (  -0.0490346   1.7195617   0.5356889  )
        10           Se  tau(  10) = (   0.4461760   0.3356423   0.7168121  )

   Crystallographic axes

     site n.     atom                  positions (cryst. coord.)
         1           As  tau(   1) = (  0.3742180  0.7612990  0.1272130  )
         2           As  tau(   2) = (  0.3742180  0.2612990  0.0761340  )
         3           As  tau(   3) = (  0.0955980  0.9826710  0.0761150  )
         4           As  tau(   4) = (  0.0955980  0.4826710  0.1272320  )
         5           Se  tau(   5) = (  0.8747020  0.9064030  0.1556630  )
         6           Se  tau(   6) = (  0.8747020  0.4064030  0.0476850  )
         7           Se  tau(   7) = (  0.3059050  0.8375600  0.0476640  )
         8           Se  tau(   8) = (  0.3059050  0.3375600  0.1556840  )
         9           Se  tau(   9) = (  0.5669780  0.6219670  0.0869710  )
        10           Se  tau(  10) = (  0.5669780  0.1219670  0.1163770  )

     number of k points=    74  gaussian smearing, width (Ry)=  0.0050
                       cart. coord. in units 2pi/alat
        k(    1) = (   0.0000000   0.0000000   0.0000000), wk =   0.0138889
        k(    2) = (   0.0001033   0.0301447   0.0000000), wk =   0.0277778
        k(    3) = (   0.0002066   0.0602894   0.0000000), wk =   0.0277778
        k(    4) = (   0.0003099   0.0904341   0.0000000), wk =   0.0277778
        k(    5) = (   0.0004132   0.1205787   0.0000000), wk =   0.0277778
        k(    6) = (   0.0005165   0.1507234   0.0000000), wk =   0.0277778
        k(    7) = (  -0.0006197  -0.1808681   0.0000000), wk =   0.0138889
        k(    8) = (   0.0834361   0.0298561   0.0000000), wk =   0.0277778
        k(    9) = (   0.0835394   0.0600008   0.0000000), wk =   0.0277778
        k(   10) = (   0.0836427   0.0901455   0.0000000), wk =   0.0277778
        k(   11) = (   0.0837460   0.1202902   0.0000000), wk =   0.0277778
        k(   12) = (   0.0838493   0.1504349   0.0000000), wk =   0.0277778
        k(   13) = (   0.0839526   0.1805795   0.0000000), wk =   0.0277778
        k(   14) = (   0.0828164  -0.1510120   0.0000000), wk =   0.0277778
        k(   15) = (   0.0829197  -0.1208673   0.0000000), wk =   0.0277778
        k(   16) = (   0.0830230  -0.0907226   0.0000000), wk =   0.0277778
        k(   17) = (   0.0831263  -0.0605779   0.0000000), wk =   0.0277778
        k(   18) = (   0.0832295  -0.0304333   0.0000000), wk =   0.0277778
        k(   19) = (   0.0833328  -0.0002886   0.0000000), wk =   0.0277778
        k(   20) = (   0.1668722   0.0597122   0.0000000), wk =   0.0277778
        k(   21) = (   0.1669755   0.0898569   0.0000000), wk =   0.0277778
        k(   22) = (   0.1670788   0.1200016   0.0000000), wk =   0.0277778
        k(   23) = (   0.1671821   0.1501463   0.0000000), wk =   0.0277778
        k(   24) = (   0.1672854   0.1802910   0.0000000), wk =   0.0277778
        k(   25) = (   0.1673887   0.2104357   0.0000000), wk =   0.0277778
        k(   26) = (   0.1662525  -0.1211559   0.0000000), wk =   0.0277778
        k(   27) = (   0.1663558  -0.0910112   0.0000000), wk =   0.0277778
        k(   28) = (   0.1664591  -0.0608665   0.0000000), wk =   0.0277778
        k(   29) = (   0.1665624  -0.0307218   0.0000000), wk =   0.0277778
        k(   30) = (   0.1666657  -0.0005771   0.0000000), wk =   0.0277778
        k(   31) = (   0.1667690   0.0295675   0.0000000), wk =   0.0277778
        k(   32) = (   0.2503084   0.0895683   0.0000000), wk =   0.0277778
        k(   33) = (   0.2504117   0.1197130   0.0000000), wk =   0.0277778
        k(   34) = (   0.2505150   0.1498577   0.0000000), wk =   0.0277778
        k(   35) = (   0.2506182   0.1800024   0.0000000), wk =   0.0277778
        k(   36) = (   0.2507215   0.2101471   0.0000000), wk =   0.0277778
        k(   37) = (   0.2508248   0.2402918   0.0000000), wk =   0.0277778
        k(   38) = (   0.2496886  -0.0912998   0.0000000), wk =   0.0277778
        k(   39) = (   0.2497919  -0.0611551   0.0000000), wk =   0.0277778
        k(   40) = (   0.2498952  -0.0310104   0.0000000), wk =   0.0277778
        k(   41) = (   0.2499985  -0.0008657   0.0000000), wk =   0.0277778
        k(   42) = (   0.2501018   0.0292790   0.0000000), wk =   0.0277778
        k(   43) = (   0.2502051   0.0594237   0.0000000), wk =   0.0277778
        k(   44) = (   0.3337445   0.1194244   0.0000000), wk =   0.0277778
        k(   45) = (   0.3338478   0.1495691   0.0000000), wk =   0.0277778
        k(   46) = (   0.3339511   0.1797138   0.0000000), wk =   0.0277778
        k(   47) = (   0.3340544   0.2098585   0.0000000), wk =   0.0277778
        k(   48) = (   0.3341577   0.2400032   0.0000000), wk =   0.0277778
        k(   49) = (   0.3342609   0.2701479   0.0000000), wk =   0.0277778
        k(   50) = (   0.3331248  -0.0614437   0.0000000), wk =   0.0277778
        k(   51) = (   0.3332280  -0.0312990   0.0000000), wk =   0.0277778
        k(   52) = (   0.3333313  -0.0011543   0.0000000), wk =   0.0277778
        k(   53) = (   0.3334346   0.0289904   0.0000000), wk =   0.0277778
        k(   54) = (   0.3335379   0.0591351   0.0000000), wk =   0.0277778
        k(   55) = (   0.3336412   0.0892798   0.0000000), wk =   0.0277778
        k(   56) = (   0.4171806   0.1492806   0.0000000), wk =   0.0277778
        k(   57) = (   0.4172839   0.1794252   0.0000000), wk =   0.0277778
        k(   58) = (   0.4173872   0.2095699   0.0000000), wk =   0.0277778
        k(   59) = (   0.4174905   0.2397146   0.0000000), wk =   0.0277778
        k(   60) = (   0.4175938   0.2698593   0.0000000), wk =   0.0277778
        k(   61) = (   0.4176971   0.3000040   0.0000000), wk =   0.0277778
        k(   62) = (   0.4165609  -0.0315876   0.0000000), wk =   0.0277778
        k(   63) = (   0.4166642  -0.0014429   0.0000000), wk =   0.0277778
        k(   64) = (   0.4167675   0.0287018   0.0000000), wk =   0.0277778
        k(   65) = (   0.4168707   0.0588465   0.0000000), wk =   0.0277778
        k(   66) = (   0.4169740   0.0889912   0.0000000), wk =   0.0277778
        k(   67) = (   0.4170773   0.1191359   0.0000000), wk =   0.0277778
        k(   68) = (  -0.5006167  -0.1791367   0.0000000), wk =   0.0138889
        k(   69) = (  -0.5005135  -0.1489920   0.0000000), wk =   0.0277778
        k(   70) = (  -0.5004102  -0.1188473   0.0000000), wk =   0.0277778
        k(   71) = (  -0.5003069  -0.0887026   0.0000000), wk =   0.0277778
        k(   72) = (  -0.5002036  -0.0585579   0.0000000), wk =   0.0277778
        k(   73) = (  -0.5001003  -0.0284132   0.0000000), wk =   0.0277778
        k(   74) = (  -0.5012365  -0.3600048   0.0000000), wk =   0.0138889

                       cryst. coord.
        k(    1) = (   0.0000000   0.0000000   0.0000000), wk =   0.0138889
        k(    2) = (  -0.0000000   0.0833333   0.0000000), wk =   0.0277778
        k(    3) = (  -0.0000000   0.1666667   0.0000000), wk =   0.0277778
        k(    4) = (   0.0000000   0.2500000   0.0000000), wk =   0.0277778
        k(    5) = (  -0.0000000   0.3333333   0.0000000), wk =   0.0277778
        k(    6) = (  -0.0000000   0.4166667   0.0000000), wk =   0.0277778
        k(    7) = (   0.0000000  -0.5000000   0.0000000), wk =   0.0138889
        k(    8) = (   0.0833333   0.0000000   0.0000000), wk =   0.0277778
        k(    9) = (   0.0833333   0.0833333   0.0000000), wk =   0.0277778
        k(   10) = (   0.0833333   0.1666667   0.0000000), wk =   0.0277778
        k(   11) = (   0.0833333   0.2500000   0.0000000), wk =   0.0277778
        k(   12) = (   0.0833333   0.3333333   0.0000000), wk =   0.0277778
        k(   13) = (   0.0833333   0.4166667   0.0000000), wk =   0.0277778
        k(   14) = (   0.0833333  -0.5000000   0.0000000), wk =   0.0277778
        k(   15) = (   0.0833333  -0.4166667   0.0000000), wk =   0.0277778
        k(   16) = (   0.0833333  -0.3333333   0.0000000), wk =   0.0277778
        k(   17) = (   0.0833333  -0.2500000   0.0000000), wk =   0.0277778
        k(   18) = (   0.0833333  -0.1666667   0.0000000), wk =   0.0277778
        k(   19) = (   0.0833333  -0.0833333   0.0000000), wk =   0.0277778
        k(   20) = (   0.1666667   0.0000000   0.0000000), wk =   0.0277778
        k(   21) = (   0.1666667   0.0833333   0.0000000), wk =   0.0277778
        k(   22) = (   0.1666667   0.1666667   0.0000000), wk =   0.0277778
        k(   23) = (   0.1666667   0.2500000   0.0000000), wk =   0.0277778
        k(   24) = (   0.1666667   0.3333333   0.0000000), wk =   0.0277778
        k(   25) = (   0.1666667   0.4166667   0.0000000), wk =   0.0277778
        k(   26) = (   0.1666667  -0.5000000   0.0000000), wk =   0.0277778
        k(   27) = (   0.1666667  -0.4166667   0.0000000), wk =   0.0277778
        k(   28) = (   0.1666667  -0.3333333   0.0000000), wk =   0.0277778
        k(   29) = (   0.1666667  -0.2500000   0.0000000), wk =   0.0277778
        k(   30) = (   0.1666667  -0.1666667   0.0000000), wk =   0.0277778
        k(   31) = (   0.1666667  -0.0833333   0.0000000), wk =   0.0277778
        k(   32) = (   0.2500000  -0.0000000   0.0000000), wk =   0.0277778
        k(   33) = (   0.2500000   0.0833333   0.0000000), wk =   0.0277778
        k(   34) = (   0.2500000   0.1666667   0.0000000), wk =   0.0277778
        k(   35) = (   0.2500000   0.2500000   0.0000000), wk =   0.0277778
        k(   36) = (   0.2500000   0.3333333   0.0000000), wk =   0.0277778
        k(   37) = (   0.2500000   0.4166667   0.0000000), wk =   0.0277778
        k(   38) = (   0.2500000  -0.5000000   0.0000000), wk =   0.0277778
        k(   39) = (   0.2500000  -0.4166667   0.0000000), wk =   0.0277778
        k(   40) = (   0.2500000  -0.3333333   0.0000000), wk =   0.0277778
        k(   41) = (   0.2500000  -0.2500000   0.0000000), wk =   0.0277778
        k(   42) = (   0.2500000  -0.1666667   0.0000000), wk =   0.0277778
        k(   43) = (   0.2500000  -0.0833333   0.0000000), wk =   0.0277778
        k(   44) = (   0.3333333   0.0000000   0.0000000), wk =   0.0277778
        k(   45) = (   0.3333333   0.0833333   0.0000000), wk =   0.0277778
        k(   46) = (   0.3333333   0.1666667   0.0000000), wk =   0.0277778
        k(   47) = (   0.3333333   0.2500000   0.0000000), wk =   0.0277778
        k(   48) = (   0.3333333   0.3333333   0.0000000), wk =   0.0277778
        k(   49) = (   0.3333333   0.4166667   0.0000000), wk =   0.0277778
        k(   50) = (   0.3333333  -0.5000000   0.0000000), wk =   0.0277778
        k(   51) = (   0.3333333  -0.4166667   0.0000000), wk =   0.0277778
        k(   52) = (   0.3333333  -0.3333333   0.0000000), wk =   0.0277778
        k(   53) = (   0.3333333  -0.2500000   0.0000000), wk =   0.0277778
        k(   54) = (   0.3333333  -0.1666667   0.0000000), wk =   0.0277778
        k(   55) = (   0.3333333  -0.0833333   0.0000000), wk =   0.0277778
        k(   56) = (   0.4166667  -0.0000000   0.0000000), wk =   0.0277778
        k(   57) = (   0.4166667   0.0833333   0.0000000), wk =   0.0277778
        k(   58) = (   0.4166667   0.1666667   0.0000000), wk =   0.0277778
        k(   59) = (   0.4166667   0.2500000   0.0000000), wk =   0.0277778
        k(   60) = (   0.4166667   0.3333333   0.0000000), wk =   0.0277778
        k(   61) = (   0.4166667   0.4166667   0.0000000), wk =   0.0277778
        k(   62) = (   0.4166667  -0.5000000   0.0000000), wk =   0.0277778
        k(   63) = (   0.4166667  -0.4166667   0.0000000), wk =   0.0277778
        k(   64) = (   0.4166667  -0.3333333   0.0000000), wk =   0.0277778
        k(   65) = (   0.4166667  -0.2500000   0.0000000), wk =   0.0277778
        k(   66) = (   0.4166667  -0.1666667   0.0000000), wk =   0.0277778
        k(   67) = (   0.4166667  -0.0833333   0.0000000), wk =   0.0277778
        k(   68) = (  -0.5000000   0.0000000   0.0000000), wk =   0.0138889
        k(   69) = (  -0.5000000   0.0833333   0.0000000), wk =   0.0277778
        k(   70) = (  -0.5000000   0.1666667   0.0000000), wk =   0.0277778
        k(   71) = (  -0.5000000   0.2500000   0.0000000), wk =   0.0277778
        k(   72) = (  -0.5000000   0.3333333   0.0000000), wk =   0.0277778
        k(   73) = (  -0.5000000   0.4166667   0.0000000), wk =   0.0277778
        k(   74) = (  -0.5000000  -0.5000000   0.0000000), wk =   0.0138889

     Dense  grid:   762667 G-vectors     FFT dimensions: (  45, 135, 288)

     Largest allocated arrays     est. size (Mb)     dimensions
        Kohn-Sham Wavefunctions         2.51 Mb     (    4844,   34)
        NL pseudopotentials             8.13 Mb     (    4844,  110)
        Each V/rho on FFT grid          1.39 Mb     (   91125)
        Each G-vector array             0.29 Mb     (   38137)
        G-vector shells                 0.29 Mb     (   38137)
     Largest temporary arrays     est. size (Mb)     dimensions
        Auxiliary wavefunctions        10.05 Mb     (    4844,  136)
        Each subspace H/S matrix        0.03 Mb     (      45,   45)
        Each <psi_i|beta_j> matrix      0.06 Mb     (     110,   34)
        Arrays for rho mixing          11.12 Mb     (   91125,    8)

     Initial potential from superposition of free atoms
     Check: negative starting charge=   -0.000643

     starting charge   55.99856, renormalised to   56.00000

     negative rho (up, down):  6.426E-04 0.000E+00
     Starting wfc are  160 randomized atomic wfcs

     total cpu time spent up to now is       62.9 secs

     per-process dynamical memory:   224.6 Mb

     Self-consistent Calculation

     iteration #  1     ecut=    70.00 Ry     beta=0.70
     Davidson diagonalization with overlap
     ethr =  1.00E-02,  avg # of iterations =  1.0

     Threshold (ethr) on eigenvalues was too large:
     Diagonalizing with lowered threshold

     Davidson diagonalization with overlap
     ethr =  4.20E-04,  avg # of iterations =  3.0

     negative rho (up, down):  1.552E-04 0.000E+00

     total cpu time spent up to now is      158.1 secs

     total energy              =    -163.94078624 Ry
     Harris-Foulkes estimate   =    -164.06163305 Ry
     estimated scf accuracy    <       0.22199296 Ry

     iteration #  2     ecut=    70.00 Ry     beta=0.70
     Davidson diagonalization with overlap
     ethr =  3.96E-04,  avg # of iterations =  2.8

     negative rho (up, down):  9.496E-05 0.000E+00

     total cpu time spent up to now is      202.4 secs

     total energy              =    -163.94454219 Ry
     Harris-Foulkes estimate   =    -164.08012717 Ry
     estimated scf accuracy    <       0.29561496 Ry

     iteration #  3     ecut=    70.00 Ry     beta=0.70
     Davidson diagonalization with overlap
     ethr =  3.96E-04,  avg # of iterations =  2.7

     negative rho (up, down):  1.190E-05 0.000E+00

     total cpu time spent up to now is      245.4 secs

     total energy              =    -164.00903911 Ry
     Harris-Foulkes estimate   =    -164.01129678 Ry
     estimated scf accuracy    <       0.00638643 Ry

     iteration #  4     ecut=    70.00 Ry     beta=0.70
     Davidson diagonalization with overlap
     ethr =  1.14E-05,  avg # of iterations =  4.4

     negative rho (up, down):  1.126E-06 0.000E+00

     total cpu time spent up to now is      310.3 secs

     total energy              =    -164.01303001 Ry
     Harris-Foulkes estimate   =    -164.01379855 Ry
     estimated scf accuracy    <       0.00214364 Ry

     iteration #  5     ecut=    70.00 Ry     beta=0.70
     Davidson diagonalization with overlap
     ethr =  3.83E-06,  avg # of iterations =  2.7

     negative rho (up, down):  9.171E-08 0.000E+00

     total cpu time spent up to now is      348.7 secs

     total energy              =    -164.01315192 Ry
     Harris-Foulkes estimate   =    -164.01326941 Ry
     estimated scf accuracy    <       0.00029846 Ry

     iteration #  6     ecut=    70.00 Ry     beta=0.70
     Davidson diagonalization with overlap
     ethr =  5.33E-07,  avg # of iterations =  3.8

     total cpu time spent up to now is      400.1 secs

     total energy              =    -164.01324480 Ry
     Harris-Foulkes estimate   =    -164.01327214 Ry
     estimated scf accuracy    <       0.00006797 Ry

     iteration #  7     ecut=    70.00 Ry     beta=0.70
     Davidson diagonalization with overlap
     ethr =  1.21E-07,  avg # of iterations =  3.6

     total cpu time spent up to now is      446.5 secs

     total energy              =    -164.01325818 Ry
     Harris-Foulkes estimate   =    -164.01327230 Ry
     estimated scf accuracy    <       0.00005272 Ry

     iteration #  8     ecut=    70.00 Ry     beta=0.70
     Davidson diagonalization with overlap
     ethr =  9.41E-08,  avg # of iterations =  2.0

     total cpu time spent up to now is      483.1 secs

     total energy              =    -164.01326132 Ry
     Harris-Foulkes estimate   =    -164.01326432 Ry
     estimated scf accuracy    <       0.00000754 Ry

     iteration #  9     ecut=    70.00 Ry     beta=0.70
     Davidson diagonalization with overlap
     ethr =  1.35E-08,  avg # of iterations =  4.0

     total cpu time spent up to now is      536.2 secs

     total energy              =    -164.01326432 Ry
     Harris-Foulkes estimate   =    -164.01326468 Ry
     estimated scf accuracy    <       0.00000150 Ry

     iteration # 10     ecut=    70.00 Ry     beta=0.70
     Davidson diagonalization with overlap
     ethr =  2.68E-09,  avg # of iterations =  2.1

     total cpu time spent up to now is      575.6 secs

     total energy              =    -164.01326449 Ry
     Harris-Foulkes estimate   =    -164.01326454 Ry
     estimated scf accuracy    <       0.00000017 Ry

     iteration # 11     ecut=    70.00 Ry     beta=0.70
     Davidson diagonalization with overlap
     ethr =  3.00E-10,  avg # of iterations =  4.0

     total cpu time spent up to now is      632.6 secs

     total energy              =    -164.01326455 Ry
     Harris-Foulkes estimate   =    -164.01326457 Ry
     estimated scf accuracy    <       0.00000006 Ry

     iteration # 12     ecut=    70.00 Ry     beta=0.70
     Davidson diagonalization with overlap
     ethr =  1.04E-10,  avg # of iterations =  2.0

     total cpu time spent up to now is      672.5 secs

     total energy              =    -164.01326456 Ry
     Harris-Foulkes estimate   =    -164.01326456 Ry
     estimated scf accuracy    <       0.00000001 Ry

     iteration # 13     ecut=    70.00 Ry     beta=0.70
     Davidson diagonalization with overlap
     ethr =  2.21E-11,  avg # of iterations =  3.3

     total cpu time spent up to now is      717.8 secs

     End of self-consistent calculation

          k = 0.0000 0.0000 0.0000 ( 95225 PWs)   bands (ev):

   -17.8812 -17.4153 -16.7608 -15.6923 -15.6578 -15.5579 -14.0535 -12.8457
   -11.8178 -11.5551  -7.8035  -7.6771  -6.9971  -6.8628  -6.5962  -6.5841
    -6.4561  -6.0692  -5.4272  -5.4030  -5.0318  -4.9940  -4.4628  -4.3883
    -4.0755  -4.0324  -3.8234  -3.8216  -1.9099  -1.4851  -1.3106  -1.2558
    -1.1796  -0.6526

     occupation numbers 
     1.0000   1.0000   1.0000   1.0000   1.0000   1.0000   1.0000   1.0000
     1.0000   1.0000   1.0000   1.0000   1.0000   1.0000   1.0000   1.0000
     1.0000   1.0000   1.0000   1.0000   1.0000   1.0000   1.0000   1.0000
     1.0000   1.0000   1.0000   1.0000   0.0000   0.0000   0.0000   0.0000
     0.0000   0.0000

          k = 0.0001 0.0301 0.0000 ( 95263 PWs)   bands (ev):

   -17.8764 -17.4321 -16.7362 -15.7018 -15.6575 -15.5732 -14.0271 -12.8670
   -11.8089 -11.5574  -7.8022  -7.6806  -7.0015  -6.8774  -6.5840  -6.5618
    -6.4527  -6.0764  -5.4219  -5.3989  -5.0446  -5.0177  -4.4520  -4.3878
    -4.0797  -4.0359  -3.8145  -3.8145  -1.9020  -1.4824  -1.2936  -1.2734
    -1.1811  -0.6703

     occupation numbers 
     1.0000   1.0000   1.0000   1.0000   1.0000   1.0000   1.0000   1.0000
     1.0000   1.0000   1.0000   1.0000   1.0000   1.0000   1.0000   1.0000
     1.0000   1.0000   1.0000   1.0000   1.0000   1.0000   1.0000   1.0000
     1.0000   1.0000   1.0000   1.0000   0.0000   0.0000   0.0000   0.0000
     0.0000   0.0000

          k = 0.0002 0.0603 0.0000 ( 95229 PWs)   bands (ev):

   -17.8620 -17.4759 -16.6689 -15.7404 -15.6565 -15.6042 -13.9530 -12.9281
   -11.7847 -11.5645  -7.7985  -7.6904  -7.0121  -6.9102  -6.5512  -6.5086
    -6.4416  -6.0964  -5.4069  -5.3881  -5.0800  -5.0781  -4.4289  -4.3878
    -4.0873  -4.0433  -3.7963  -3.7928  -1.8783  -1.4698  -1.3219  -1.2482
    -1.1872  -0.7096

     occupation numbers 
     1.0000   1.0000   1.0000   1.0000   1.0000   1.0000   1.0000   1.0000
     1.0000   1.0000   1.0000   1.0000   1.0000   1.0000   1.0000   1.0000
     1.0000   1.0000   1.0000   1.0000   1.0000   1.0000   1.0000   1.0000
     1.0000   1.0000   1.0000   1.0000   0.0000   0.0000   0.0000   0.0000
     0.0000   0.0000

          k = 0.0003 0.0904 0.0000 ( 95239 PWs)   bands (ev):

   -17.8382 -17.5340 -16.5721 -15.8217 -15.6549 -15.6256 -13.8433 -13.0218
   -11.7511 -11.5766  -7.7922  -7.7049  -7.0233  -6.9465  -6.5075  -6.4547
    -6.4126  -6.1256  -5.3840  -5.3751  -5.1544  -5.1301  -4.4085  -4.3901
    -4.0906  -4.0502  -3.7735  -3.7674  -1.8394  -1.4412  -1.3920  -1.1993
    -1.1845  -0.7477

     occupation numbers 
     1.0000   1.0000   1.0000   1.0000   1.0000   1.0000   1.0000   1.0000
     1.0000   1.0000   1.0000   1.0000   1.0000   1.0000   1.0000   1.0000
     1.0000   1.0000   1.0000   1.0000   1.0000   1.0000   1.0000   1.0000
     1.0000   1.0000   1.0000   1.0000   0.0000   0.0000   0.0000   0.0000
     0.0000   0.0000

          k = 0.0004 0.1206 0.0000 ( 95201 PWs)   bands (ev):

   -17.8052 -17.5966 -16.4566 -15.9344 -15.6528 -15.6362 -13.7110 -13.1397
   -11.7139 -11.5939  -7.7830  -7.7221  -7.0303  -6.9789  -6.4639  -6.4297
    -6.3520  -6.1599  -5.3635  -5.3563  -5.2276  -5.1845  -4.3982  -4.3943
    -4.0867  -4.0554  -3.7520  -3.7459  -1.7863  -1.4744  -1.3965  -1.2190
    -1.1099  -0.7692

     occupation numbers 
     1.0000   1.0000   1.0000   1.0000   1.0000   1.0000   1.0000   1.0000
     1.0000   1.0000   1.0000   1.0000   1.0000   1.0000   1.0000   1.0000
     1.0000   1.0000   1.0000   1.0000   1.0000   1.0000   1.0000   1.0000
     1.0000   1.0000   1.0000   1.0000   0.0000   0.0000   0.0000   0.0000
     0.0000   0.0000

          k = 0.0005 0.1507 0.0000 ( 95135 PWs)   bands (ev):

   -17.7636 -17.6578 -16.3296 -16.0626 -15.6501 -15.6424 -13.5667 -13.2743
   -11.6775 -11.6166  -7.7711  -7.7398  -7.0302  -7.0044  -6.4311  -6.4170
    -6.2903  -6.1971  -5.3529  -5.3311  -5.2790  -5.2342  -4.3973  -4.3963
    -4.0779  -4.0607  -3.7363  -3.7325  -1.7205  -1.5606  -1.3423  -1.2484
    -1.0280  -0.8425

     occupation numbers 
     1.0000   1.0000   1.0000   1.0000   1.0000   1.0000   1.0000   1.0000
     1.0000   1.0000   1.0000   1.0000   1.0000   1.0000   1.0000   1.0000
     1.0000   1.0000   1.0000   1.0000   1.0000   1.0000   1.0000   1.0000
     1.0000   1.0000   1.0000   1.0000   0.0000   0.0000   0.0000   0.0000
     0.0000   0.0000

          k =-0.0006-0.1809 0.0000 ( 95156 PWs)   bands (ev):

   -17.7141 -17.7140 -16.1965 -16.1965 -15.6468 -15.6466 -13.4188 -13.4187
   -11.6447 -11.6446  -7.7565  -7.7564  -7.0217  -7.0216  -6.4157  -6.4156
    -6.2391  -6.2390  -5.3376  -5.3375  -5.2732  -5.2731  -4.3976  -4.3975
    -4.0684  -4.0683  -3.7293  -3.7293  -1.6442  -1.6441  -1.2900  -1.2900
    -0.9387  -0.9386

     occupation numbers 
     1.0000   1.0000   1.0000   1.0000   1.0000   1.0000   1.0000   1.0000
     1.0000   1.0000   1.0000   1.0000   1.0000   1.0000   1.0000   1.0000
     1.0000   1.0000   1.0000   1.0000   1.0000   1.0000   1.0000   1.0000
     1.0000   1.0000   1.0000   1.0000   0.0000   0.0000   0.0000   0.0000
     0.0000   0.0000

          k = 0.0834 0.0299 0.0000 ( 95328 PWs)   bands (ev):

   -17.8466 -17.4037 -16.7271 -15.7304 -15.6633 -15.5698 -13.9914 -12.8847
   -11.8463 -11.6042  -7.7885  -7.6523  -7.1286  -6.9275  -6.9053  -6.5813
    -6.4461  -5.7885  -5.4420  -5.4237  -5.1266  -5.0279  -4.5191  -4.2895
    -4.1353  -4.0789  -3.8420  -3.7411  -1.8587  -1.3186  -1.2985  -1.2218
    -1.0640  -0.6769

     occupation numbers 
     1.0000   1.0000   1.0000   1.0000   1.0000   1.0000   1.0000   1.0000
     1.0000   1.0000   1.0000   1.0000   1.0000   1.0000   1.0000   1.0000
     1.0000   1.0000   1.0000   1.0000   1.0000   1.0000   1.0000   1.0000
     1.0000   1.0000   1.0000   1.0000   0.0000   0.0000   0.0000   0.0000
     0.0000   0.0000

          k = 0.0835 0.0600 0.0000 ( 95307 PWs)   bands (ev):

   -17.8323 -17.4476 -16.6604 -15.7673 -15.6623 -15.5989 -13.9216 -12.9427
   -11.8237 -11.6113  -7.7861  -7.6658  -7.1449  -6.9646  -6.8538  -6.5643
    -6.3931  -5.8155  -5.4497  -5.4302  -5.1686  -5.0582  -4.4771  -4.2769
    -4.1334  -4.0999  -3.8217  -3.7275  -1.8353  -1.3462  -1.3364  -1.2212
    -1.0162  -0.7490

     occupation numbers 
     1.0000   1.0000   1.0000   1.0000   1.0000   1.0000   1.0000   1.0000
     1.0000   1.0000   1.0000   1.0000   1.0000   1.0000   1.0000   1.0000
     1.0000   1.0000   1.0000   1.0000   1.0000   1.0000   1.0000   1.0000
     1.0000   1.0000   1.0000   1.0000   0.0000   0.0000   0.0000   0.0000
     0.0000   0.0000

          k = 0.0836 0.0901 0.0000 ( 95254 PWs)   bands (ev):

   -17.8086 -17.5058 -16.5648 -15.8413 -15.6605 -15.6230 -13.8177 -13.0320
   -11.7921 -11.6234  -7.7814  -7.6853  -7.1563  -7.0101  -6.7870  -6.5494
    -6.3165  -5.8573  -5.4681  -5.4454  -5.2050  -5.0971  -4.4334  -4.2753
    -4.1242  -4.1115  -3.7947  -3.7149  -1.7973  -1.3955  -1.3642  -1.2193
    -0.9749  -0.8383

     occupation numbers 
     1.0000   1.0000   1.0000   1.0000   1.0000   1.0000   1.0000   1.0000
     1.0000   1.0000   1.0000   1.0000   1.0000   1.0000   1.0000   1.0000
     1.0000   1.0000   1.0000   1.0000   1.0000   1.0000   1.0000   1.0000
     1.0000   1.0000   1.0000   1.0000   0.0000   0.0000   0.0000   0.0000
     0.0000   0.0000

          k = 0.0837 0.1203 0.0000 ( 95269 PWs)   bands (ev):

   -17.7759 -17.5682 -16.4513 -15.9462 -15.6581 -15.6370 -13.6917 -13.1446
   -11.7568 -11.6406  -7.7738  -7.7072  -7.1577  -7.0552  -6.7154  -6.5451
    -6.2282  -5.9113  -5.4947  -5.4701  -5.2189  -5.1352  -4.3995  -4.2943
    -4.1079  -4.1041  -3.7670  -3.7092  -1.7463  -1.4666  -1.3621  -1.2247
    -0.9616  -0.9203

     occupation numbers 
     1.0000   1.0000   1.0000   1.0000   1.0000   1.0000   1.0000   1.0000
     1.0000   1.0000   1.0000   1.0000   1.0000   1.0000   1.0000   1.0000
     1.0000   1.0000   1.0000   1.0000   1.0000   1.0000   1.0000   1.0000
     1.0000   1.0000   1.0000   1.0000   0.0000   0.0000   0.0000   0.0000
     0.0000   0.0000

          k = 0.0838 0.1504 0.0000 ( 95238 PWs)   bands (ev):

   -17.7345 -17.6291 -16.3270 -16.0684 -15.6549 -15.6453 -13.5537 -13.2735
   -11.7220 -11.6629  -7.7626  -7.7286  -7.1477  -7.0948  -6.6481  -6.5587
    -6.1378  -5.9765  -5.5150  -5.4977  -5.2125  -5.1678  -4.3739  -4.3226
    -4.0918  -4.0906  -3.7426  -3.7123  -1.6849  -1.5418  -1.3368  -1.2499
    -0.9716  -0.9711

     occupation numbers 
     1.0000   1.0000   1.0000   1.0000   1.0000   1.0000   1.0000   1.0000
     1.0000   1.0000   1.0000   1.0000   1.0000   1.0000   1.0000   1.0000
     1.0000   1.0000   1.0000   1.0000   1.0000   1.0000   1.0000   1.0000
     1.0000   1.0000   1.0000   1.0000   0.0000   0.0000   0.0000   0.0000
     0.0000   0.0000

          k = 0.0840 0.1806 0.0000 ( 95208 PWs)   bands (ev):

   -17.6853 -17.6851 -16.1976 -16.1975 -15.6508 -15.6507 -13.4120 -13.4119
   -11.6903 -11.6902  -7.7475  -7.7474  -7.1263  -7.1263  -6.5937  -6.5935
    -6.0525  -6.0525  -5.5161  -5.5160  -5.1939  -5.1938  -4.3498  -4.3497
    -4.0850  -4.0849  -3.7239  -3.7238  -1.6158  -1.6157  -1.2940  -1.2938
    -0.9826  -0.9825

     occupation numbers 
     1.0000   1.0000   1.0000   1.0000   1.0000   1.0000   1.0000   1.0000
     1.0000   1.0000   1.0000   1.0000   1.0000   1.0000   1.0000   1.0000
     1.0000   1.0000   1.0000   1.0000   1.0000   1.0000   1.0000   1.0000
     1.0000   1.0000   1.0000   1.0000   0.0000   0.0000   0.0000   0.0000
     0.0000   0.0000

          k = 0.0828-0.1510 0.0000 ( 95234 PWs)   bands (ev):

   -17.7345 -17.6292 -16.3270 -16.0684 -15.6549 -15.6452 -13.5537 -13.2735
   -11.7220 -11.6629  -7.7626  -7.7287  -7.1476  -7.0949  -6.6483  -6.5585
    -6.1378  -5.9765  -5.5148  -5.4978  -5.2126  -5.1676  -4.3740  -4.3225
    -4.0919  -4.0906  -3.7425  -3.7124  -1.6849  -1.5418  -1.3370  -1.2497
    -0.9716  -0.9709

     occupation numbers 
     1.0000   1.0000   1.0000   1.0000   1.0000   1.0000   1.0000   1.0000
     1.0000   1.0000   1.0000   1.0000   1.0000   1.0000   1.0000   1.0000
     1.0000   1.0000   1.0000   1.0000   1.0000   1.0000   1.0000   1.0000
     1.0000   1.0000   1.0000   1.0000   0.0000   0.0000   0.0000   0.0000
     0.0000   0.0000

          k = 0.0829-0.1209 0.0000 ( 95269 PWs)   bands (ev):

   -17.7759 -17.5683 -16.4512 -15.9463 -15.6581 -15.6370 -13.6917 -13.1446
   -11.7568 -11.6405  -7.7738  -7.7072  -7.1577  -7.0552  -6.7156  -6.5450
    -6.2282  -5.9113  -5.4946  -5.4702  -5.2190  -5.1350  -4.3997  -4.2942
    -4.1080  -4.1041  -3.7669  -3.7093  -1.7463  -1.4666  -1.3623  -1.2246
    -0.9614  -0.9201

     occupation numbers 
     1.0000   1.0000   1.0000   1.0000   1.0000   1.0000   1.0000   1.0000
     1.0000   1.0000   1.0000   1.0000   1.0000   1.0000   1.0000   1.0000
     1.0000   1.0000   1.0000   1.0000   1.0000   1.0000   1.0000   1.0000
     1.0000   1.0000   1.0000   1.0000   0.0000   0.0000   0.0000   0.0000
     0.0000   0.0000

          k = 0.0830-0.0907 0.0000 ( 95256 PWs)   bands (ev):

   -17.8086 -17.5058 -16.5648 -15.8414 -15.6605 -15.6230 -13.8178 -13.0319
   -11.7921 -11.6234  -7.7814  -7.6853  -7.1563  -7.0101  -6.7872  -6.5493
    -6.3165  -5.8573  -5.4680  -5.4455  -5.2051  -5.0969  -4.4335  -4.2752
    -4.1243  -4.1116  -3.7947  -3.7150  -1.7973  -1.3955  -1.3645  -1.2192
    -0.9747  -0.8381

     occupation numbers 
     1.0000   1.0000   1.0000   1.0000   1.0000   1.0000   1.0000   1.0000
     1.0000   1.0000   1.0000   1.0000   1.0000   1.0000   1.0000   1.0000
     1.0000   1.0000   1.0000   1.0000   1.0000   1.0000   1.0000   1.0000
     1.0000   1.0000   1.0000   1.0000   0.0000   0.0000   0.0000   0.0000
     0.0000   0.0000

          k = 0.0831-0.0606 0.0000 ( 95307 PWs)   bands (ev):

   -17.8323 -17.4476 -16.6604 -15.7674 -15.6623 -15.5988 -13.9217 -12.9427
   -11.8238 -11.6113  -7.7861  -7.6658  -7.1448  -6.9646  -6.8540  -6.5643
    -6.3931  -5.8155  -5.4495  -5.4303  -5.1687  -5.0580  -4.4772  -4.2768
    -4.1334  -4.0999  -3.8216  -3.7275  -1.8353  -1.3464  -1.3364  -1.2211
    -1.0160  -0.7488

     occupation numbers 
     1.0000   1.0000   1.0000   1.0000   1.0000   1.0000   1.0000   1.0000
     1.0000   1.0000   1.0000   1.0000   1.0000   1.0000   1.0000   1.0000
     1.0000   1.0000   1.0000   1.0000   1.0000   1.0000   1.0000   1.0000
     1.0000   1.0000   1.0000   1.0000   0.0000   0.0000   0.0000   0.0000
     0.0000   0.0000

          k = 0.0832-0.0304 0.0000 ( 95324 PWs)   bands (ev):

   -17.8466 -17.4037 -16.7271 -15.7304 -15.6633 -15.5698 -13.9914 -12.8847
   -11.8463 -11.6041  -7.7885  -7.6523  -7.1286  -6.9275  -6.9055  -6.5813
    -6.4461  -5.7885  -5.4419  -5.4238  -5.1266  -5.0278  -4.5192  -4.2895
    -4.1353  -4.0790  -3.8420  -3.7411  -1.8587  -1.3188  -1.2985  -1.2217
    -1.0638  -0.6767

     occupation numbers 
     1.0000   1.0000   1.0000   1.0000   1.0000   1.0000   1.0000   1.0000
     1.0000   1.0000   1.0000   1.0000   1.0000   1.0000   1.0000   1.0000
     1.0000   1.0000   1.0000   1.0000   1.0000   1.0000   1.0000   1.0000
     1.0000   1.0000   1.0000   1.0000   0.0000   0.0000   0.0000   0.0000
     0.0000   0.0000

          k = 0.0833-0.0003 0.0000 ( 95254 PWs)   bands (ev):

   -17.8514 -17.3867 -16.7517 -15.7203 -15.6637 -15.5563 -14.0162 -12.8645
   -11.8546 -11.6018  -7.7893  -7.6474  -7.1200  -6.9261  -6.9124  -6.5895
    -6.4650  -5.7791  -5.4403  -5.4222  -5.1075  -5.0163  -4.5374  -4.2960
    -4.1350  -4.0690  -3.8497  -3.7472  -1.8666  -1.3037  -1.2864  -1.2207
    -1.0866  -0.6475

     occupation numbers 
     1.0000   1.0000   1.0000   1.0000   1.0000   1.0000   1.0000   1.0000
     1.0000   1.0000   1.0000   1.0000   1.0000   1.0000   1.0000   1.0000
     1.0000   1.0000   1.0000   1.0000   1.0000   1.0000   1.0000   1.0000
     1.0000   1.0000   1.0000   1.0000   0.0000   0.0000   0.0000   0.0000
     0.0000   0.0000

          k = 0.1669 0.0597 0.0000 ( 95345 PWs)   bands (ev):

   -17.7450 -17.3646 -16.6417 -15.8451 -15.6791 -15.5890 -13.8282 -12.9741
   -11.9385 -11.7464  -7.7624  -7.5932  -7.4197  -7.2245  -7.1296  -6.6310
    -6.3854  -5.6364  -5.6033  -5.5044  -5.2709  -4.9712  -4.5891  -4.2837
    -4.1609  -3.9621  -3.9315  -3.6204  -1.7419  -1.4868  -1.1493  -0.9417
    -0.9212  -0.5979

     occupation numbers 
     1.0000   1.0000   1.0000   1.0000   1.0000   1.0000   1.0000   1.0000
     1.0000   1.0000   1.0000   1.0000   1.0000   1.0000   1.0000   1.0000
     1.0000   1.0000   1.0000   1.0000   1.0000   1.0000   1.0000   1.0000
     1.0000   1.0000   1.0000   1.0000   0.0000   0.0000   0.0000   0.0000
     0.0000   0.0000

          k = 0.1670 0.0899 0.0000 ( 95329 PWs)   bands (ev):

   -17.7218 -17.4230 -16.5499 -15.9042 -15.6766 -15.6159 -13.7398 -13.0519
   -11.9114 -11.7582  -7.7640  -7.6285  -7.4211  -7.1838  -7.1345  -6.6417
    -6.2804  -5.6827  -5.6680  -5.5205  -5.2331  -5.0335  -4.5523  -4.2280
    -4.2259  -3.9329  -3.8967  -3.6504  -1.7031  -1.4582  -1.1805  -1.0012
    -0.9444  -0.6474

     occupation numbers 
     1.0000   1.0000   1.0000   1.0000   1.0000   1.0000   1.0000   1.0000
     1.0000   1.0000   1.0000   1.0000   1.0000   1.0000   1.0000   1.0000
     1.0000   1.0000   1.0000   1.0000   1.0000   1.0000   1.0000   1.0000
     1.0000   1.0000   1.0000   1.0000   0.0000   0.0000   0.0000   0.0000
     0.0000   0.0000

          k = 0.1671 0.1200 0.0000 ( 95338 PWs)   bands (ev):

   -17.6897 -17.4851 -16.4425 -15.9897 -15.6729 -15.6368 -13.6310 -13.1506
   -11.8808 -11.7748  -7.7606  -7.6665  -7.4068  -7.2405  -7.0348  -6.6777
    -6.1589  -5.7429  -5.7019  -5.5570  -5.2063  -5.0922  -4.5151  -4.2983
    -4.1472  -3.9213  -3.8568  -3.6907  -1.6512  -1.4460  -1.2062  -1.0652
    -0.9464  -0.7182

     occupation numbers 
     1.0000   1.0000   1.0000   1.0000   1.0000   1.0000   1.0000   1.0000
     1.0000   1.0000   1.0000   1.0000   1.0000   1.0000   1.0000   1.0000
     1.0000   1.0000   1.0000   1.0000   1.0000   1.0000   1.0000   1.0000
     1.0000   1.0000   1.0000   1.0000   0.0000   0.0000   0.0000   0.0000
     0.0000   0.0000

          k = 0.1672 0.1501 0.0000 ( 95321 PWs)   bands (ev):

   -17.6490 -17.5453 -16.3269 -16.0940 -15.6679 -15.6512 -13.5105 -13.2640
   -11.8499 -11.7959  -7.7497  -7.7016  -7.3794  -7.2940  -6.9309  -6.7426
    -6.0338  -5.8198  -5.6992  -5.6106  -5.1855  -5.1359  -4.4741  -4.3655
    -4.0621  -3.9378  -3.8164  -3.7348  -1.5896  -1.4703  -1.2050  -1.1253
    -0.9188  -0.7945

     occupation numbers 
     1.0000   1.0000   1.0000   1.0000   1.0000   1.0000   1.0000   1.0000
     1.0000   1.0000   1.0000   1.0000   1.0000   1.0000   1.0000   1.0000
     1.0000   1.0000   1.0000   1.0000   1.0000   1.0000   1.0000   1.0000
     1.0000   1.0000   1.0000   1.0000   0.0000   0.0000   0.0000   0.0000
     0.0000   0.0000

          k = 0.1673 0.1803 0.0000 ( 95326 PWs)   bands (ev):

   -17.6006 -17.6005 -16.2089 -16.2088 -15.6610 -15.6609 -13.3860 -13.3859
   -11.8212 -11.8211  -7.7300  -7.7299  -7.3411  -7.3410  -6.8305  -6.8303
    -5.9175  -5.9174  -5.6645  -5.6644  -5.1646  -5.1645  -4.4248  -4.4247
    -3.9873  -3.9870  -3.7767  -3.7765  -1.5250  -1.5249  -1.1745  -1.1744
    -0.8650  -0.8647

     occupation numbers 
     1.0000   1.0000   1.0000   1.0000   1.0000   1.0000   1.0000   1.0000
     1.0000   1.0000   1.0000   1.0000   1.0000   1.0000   1.0000   1.0000
     1.0000   1.0000   1.0000   1.0000   1.0000   1.0000   1.0000   1.0000
     1.0000   1.0000   1.0000   1.0000   0.0000   0.0000   0.0000   0.0000
     0.0000   0.0000

          k = 0.1674 0.2104 0.0000 ( 95322 PWs)   bands (ev):

   -17.6490 -17.5454 -16.3269 -16.0941 -15.6679 -15.6511 -13.5105 -13.2640
   -11.8500 -11.7958  -7.7497  -7.7016  -7.3793  -7.2940  -6.9312  -6.7424
    -6.0338  -5.8199  -5.6992  -5.6105  -5.1856  -5.1358  -4.4742  -4.3655
    -4.0622  -3.9375  -3.8162  -3.7350  -1.5897  -1.4702  -1.2049  -1.1254
    -0.9186  -0.7948

     occupation numbers 
     1.0000   1.0000   1.0000   1.0000   1.0000   1.0000   1.0000   1.0000
     1.0000   1.0000   1.0000   1.0000   1.0000   1.0000   1.0000   1.0000
     1.0000   1.0000   1.0000   1.0000   1.0000   1.0000   1.0000   1.0000
     1.0000   1.0000   1.0000   1.0000   0.0000   0.0000   0.0000   0.0000
     0.0000   0.0000

          k = 0.1663-0.1212 0.0000 ( 95340 PWs)   bands (ev):

   -17.6896 -17.4852 -16.4425 -15.9898 -15.6730 -15.6368 -13.6310 -13.1506
   -11.8808 -11.7747  -7.7606  -7.6665  -7.4067  -7.2405  -7.0351  -6.6775
    -6.1589  -5.7429  -5.7018  -5.5569  -5.2064  -5.0922  -4.5152  -4.2983
    -4.1474  -3.9211  -3.8567  -3.6909  -1.6512  -1.4459  -1.2061  -1.0654
    -0.9463  -0.7185

     occupation numbers 
     1.0000   1.0000   1.0000   1.0000   1.0000   1.0000   1.0000   1.0000
     1.0000   1.0000   1.0000   1.0000   1.0000   1.0000   1.0000   1.0000
     1.0000   1.0000   1.0000   1.0000   1.0000   1.0000   1.0000   1.0000
     1.0000   1.0000   1.0000   1.0000   0.0000   0.0000   0.0000   0.0000
     0.0000   0.0000

          k = 0.1664-0.0910 0.0000 ( 95333 PWs)   bands (ev):

   -17.7218 -17.4230 -16.5499 -15.9043 -15.6766 -15.6158 -13.7398 -13.0518
   -11.9115 -11.7582  -7.7640  -7.6285  -7.4210  -7.1839  -7.1348  -6.6417
    -6.2803  -5.6828  -5.6678  -5.5204  -5.2333  -5.0334  -4.5523  -4.2280
    -4.2260  -3.9327  -3.8966  -3.6505  -1.7031  -1.4581  -1.1805  -1.0014
    -0.9443  -0.6476

     occupation numbers 
     1.0000   1.0000   1.0000   1.0000   1.0000   1.0000   1.0000   1.0000
     1.0000   1.0000   1.0000   1.0000   1.0000   1.0000   1.0000   1.0000
     1.0000   1.0000   1.0000   1.0000   1.0000   1.0000   1.0000   1.0000
     1.0000   1.0000   1.0000   1.0000   0.0000   0.0000   0.0000   0.0000
     0.0000   0.0000

          k = 0.1665-0.0609 0.0000 ( 95341 PWs)   bands (ev):

   -17.7450 -17.3646 -16.6417 -15.8452 -15.6792 -15.5889 -13.8283 -12.9741
   -11.9385 -11.7464  -7.7624  -7.5932  -7.4195  -7.2248  -7.1296  -6.6311
    -6.3853  -5.6364  -5.6031  -5.5044  -5.2712  -4.9711  -4.5891  -4.2837
    -4.1609  -3.9620  -3.9314  -3.6205  -1.7419  -1.4866  -1.1492  -0.9418
    -0.9212  -0.5981

     occupation numbers 
     1.0000   1.0000   1.0000   1.0000   1.0000   1.0000   1.0000   1.0000
     1.0000   1.0000   1.0000   1.0000   1.0000   1.0000   1.0000   1.0000
     1.0000   1.0000   1.0000   1.0000   1.0000   1.0000   1.0000   1.0000
     1.0000   1.0000   1.0000   1.0000   0.0000   0.0000   0.0000   0.0000
     0.0000   0.0000

          k = 0.1666-0.0307 0.0000 ( 95373 PWs)   bands (ev):

   -17.7590 -17.3199 -16.7068 -15.8130 -15.6806 -15.5643 -13.8867 -12.9238
   -11.9575 -11.7393  -7.7594  -7.5675  -7.3999  -7.3008  -7.0875  -6.6336
    -6.4591  -5.6046  -5.5254  -5.5022  -5.3209  -4.9232  -4.6202  -4.3153
    -4.1038  -3.9985  -3.9556  -3.6031  -1.7658  -1.5112  -1.1267  -0.8974
    -0.8955  -0.5794

     occupation numbers 
     1.0000   1.0000   1.0000   1.0000   1.0000   1.0000   1.0000   1.0000
     1.0000   1.0000   1.0000   1.0000   1.0000   1.0000   1.0000   1.0000
     1.0000   1.0000   1.0000   1.0000   1.0000   1.0000   1.0000   1.0000
     1.0000   1.0000   1.0000   1.0000   0.0000   0.0000   0.0000   0.0000
     0.0000   0.0000

          k = 0.1667-0.0006 0.0000 ( 95402 PWs)   bands (ev):

   -17.7637 -17.3025 -16.7311 -15.8031 -15.6811 -15.5542 -13.9073 -12.9063
   -11.9644 -11.7369  -7.7581  -7.5581  -7.3662  -7.3538  -7.0709  -6.6365
    -6.4863  -5.5924  -5.5036  -5.4781  -5.3566  -4.9052  -4.6328  -4.3247
    -4.0712  -4.0247  -3.9643  -3.5975  -1.7739  -1.5205  -1.1187  -0.8846
    -0.8804  -0.5775

     occupation numbers 
     1.0000   1.0000   1.0000   1.0000   1.0000   1.0000   1.0000   1.0000
     1.0000   1.0000   1.0000   1.0000   1.0000   1.0000   1.0000   1.0000
     1.0000   1.0000   1.0000   1.0000   1.0000   1.0000   1.0000   1.0000
     1.0000   1.0000   1.0000   1.0000   0.0000   0.0000   0.0000   0.0000
     0.0000   0.0000

          k = 0.1668 0.0296 0.0000 ( 95371 PWs)   bands (ev):

   -17.7590 -17.3199 -16.7068 -15.8129 -15.6806 -15.5644 -13.8867 -12.9238
   -11.9574 -11.7393  -7.7595  -7.5676  -7.4001  -7.3005  -7.0875  -6.6336
    -6.4592  -5.6046  -5.5256  -5.5022  -5.3207  -4.9233  -4.6202  -4.3152
    -4.1038  -3.9986  -3.9556  -3.6030  -1.7658  -1.5112  -1.1268  -0.8973
    -0.8955  -0.5792

     occupation numbers 
     1.0000   1.0000   1.0000   1.0000   1.0000   1.0000   1.0000   1.0000
     1.0000   1.0000   1.0000   1.0000   1.0000   1.0000   1.0000   1.0000
     1.0000   1.0000   1.0000   1.0000   1.0000   1.0000   1.0000   1.0000
     1.0000   1.0000   1.0000   1.0000   0.0000   0.0000   0.0000   0.0000
     0.0000   0.0000

          k = 0.2503 0.0896 0.0000 ( 95376 PWs)   bands (ev):

   -17.5836 -17.2925 -16.5479 -16.0157 -15.6971 -15.6086 -13.6078 -13.0550
   -12.0986 -11.9634  -7.8381  -7.6174  -7.5981  -7.3703  -7.3224  -6.7086
    -6.4168  -5.8242  -5.8016  -5.5797  -5.1944  -4.9797  -4.6464  -4.3037
    -4.1489  -4.0433  -3.8838  -3.5953  -1.5731  -1.4396  -1.0314  -0.9245
    -0.5426  -0.2942

     occupation numbers 
     1.0000   1.0000   1.0000   1.0000   1.0000   1.0000   1.0000   1.0000
     1.0000   1.0000   1.0000   1.0000   1.0000   1.0000   1.0000   1.0000
     1.0000   1.0000   1.0000   1.0000   1.0000   1.0000   1.0000   1.0000
     1.0000   1.0000   1.0000   1.0000   0.0000   0.0000   0.0000   0.0000
     0.0000   0.0000

          k = 0.2504 0.1197 0.0000 ( 95380 PWs)   bands (ev):

   -17.5527 -17.3542 -16.4514 -16.0795 -15.6906 -15.6329 -13.5229 -13.1357
   -12.0725 -11.9787  -7.8358  -7.6726  -7.5857  -7.4129  -7.2148  -6.7584
    -6.2963  -5.8633  -5.8426  -5.6103  -5.1600  -5.0619  -4.5942  -4.2427
    -4.2179  -3.9699  -3.9159  -3.6505  -1.5223  -1.3596  -1.0317  -0.8737
    -0.6014  -0.4526

     occupation numbers 
     1.0000   1.0000   1.0000   1.0000   1.0000   1.0000   1.0000   1.0000
     1.0000   1.0000   1.0000   1.0000   1.0000   1.0000   1.0000   1.0000
     1.0000   1.0000   1.0000   1.0000   1.0000   1.0000   1.0000   1.0000
     1.0000   1.0000   1.0000   1.0000   0.0000   0.0000   0.0000   0.0000
     0.0000   0.0000

          k = 0.2505 0.1499 0.0000 ( 95377 PWs)   bands (ev):

   -17.5136 -17.4131 -16.3510 -16.1598 -15.6816 -15.6534 -13.4273 -13.2282
   -12.0458 -11.9979  -7.8184  -7.7359  -7.5481  -7.4595  -7.0952  -6.8538
    -6.1627  -5.9413  -5.8124  -5.6709  -5.1499  -5.1176  -4.5184  -4.3377
    -4.1285  -3.9704  -3.8875  -3.7212  -1.4625  -1.3527  -0.9462  -0.8108
    -0.6702  -0.6232

     occupation numbers 
     1.0000   1.0000   1.0000   1.0000   1.0000   1.0000   1.0000   1.0000
     1.0000   1.0000   1.0000   1.0000   1.0000   1.0000   1.0000   1.0000
     1.0000   1.0000   1.0000   1.0000   1.0000   1.0000   1.0000   1.0000
     1.0000   1.0000   1.0000   1.0000   0.0000   0.0000   0.0000   0.0000
     0.0000   0.0000

          k = 0.2506 0.1800 0.0000 ( 95370 PWs)   bands (ev):

   -17.4668 -17.4667 -16.2521 -16.2520 -15.6696 -15.6695 -13.3272 -13.3271
   -12.0206 -12.0205  -7.7850  -7.7849  -7.5055  -7.5054  -6.9715  -6.9713
    -6.0407  -6.0406  -5.7478  -5.7476  -5.1424  -5.1424  -4.4308  -4.4307
    -4.0434  -4.0433  -3.8025  -3.8022  -1.4004  -1.4003  -0.7965  -0.7963
    -0.7403  -0.7402

     occupation numbers 
     1.0000   1.0000   1.0000   1.0000   1.0000   1.0000   1.0000   1.0000
     1.0000   1.0000   1.0000   1.0000   1.0000   1.0000   1.0000   1.0000
     1.0000   1.0000   1.0000   1.0000   1.0000   1.0000   1.0000   1.0000
     1.0000   1.0000   1.0000   1.0000   0.0000   0.0000   0.0000   0.0000
     0.0000   0.0000

          k = 0.2507 0.2101 0.0000 ( 95373 PWs)   bands (ev):

   -17.5136 -17.4132 -16.3510 -16.1599 -15.6817 -15.6534 -13.4273 -13.2281
   -12.0459 -11.9979  -7.8183  -7.7360  -7.5481  -7.4594  -7.0954  -6.8537
    -6.1627  -5.9413  -5.8126  -5.6707  -5.1499  -5.1176  -4.5185  -4.3377
    -4.1286  -3.9702  -3.8872  -3.7215  -1.4625  -1.3526  -0.9460  -0.8108
    -0.6703  -0.6235

     occupation numbers 
     1.0000   1.0000   1.0000   1.0000   1.0000   1.0000   1.0000   1.0000
     1.0000   1.0000   1.0000   1.0000   1.0000   1.0000   1.0000   1.0000
     1.0000   1.0000   1.0000   1.0000   1.0000   1.0000   1.0000   1.0000
     1.0000   1.0000   1.0000   1.0000   0.0000   0.0000   0.0000   0.0000
     0.0000   0.0000

          k = 0.2508 0.2403 0.0000 ( 95381 PWs)   bands (ev):

   -17.5527 -17.3542 -16.4514 -16.0796 -15.6907 -15.6328 -13.5229 -13.1356
   -12.0726 -11.9787  -7.8357  -7.6727  -7.5857  -7.4128  -7.2150  -6.7583
    -6.2963  -5.8633  -5.8427  -5.6101  -5.1600  -5.0619  -4.5943  -4.2426
    -4.2179  -3.9698  -3.9157  -3.6509  -1.5224  -1.3595  -1.0316  -0.8737
    -0.6016  -0.4529

     occupation numbers 
     1.0000   1.0000   1.0000   1.0000   1.0000   1.0000   1.0000   1.0000
     1.0000   1.0000   1.0000   1.0000   1.0000   1.0000   1.0000   1.0000
     1.0000   1.0000   1.0000   1.0000   1.0000   1.0000   1.0000   1.0000
     1.0000   1.0000   1.0000   1.0000   0.0000   0.0000   0.0000   0.0000
     0.0000   0.0000

          k = 0.2497-0.0913 0.0000 ( 95376 PWs)   bands (ev):

   -17.5836 -17.2925 -16.5478 -16.0158 -15.6972 -15.6085 -13.6078 -13.0549
   -12.0987 -11.9633  -7.8380  -7.6174  -7.5982  -7.3703  -7.3226  -6.7087
    -6.4167  -5.8242  -5.8016  -5.5796  -5.1946  -4.9797  -4.6464  -4.3037
    -4.1489  -4.0432  -3.8835  -3.5957  -1.5731  -1.4395  -1.0314  -0.9245
    -0.5427  -0.2945

     occupation numbers 
     1.0000   1.0000   1.0000   1.0000   1.0000   1.0000   1.0000   1.0000
     1.0000   1.0000   1.0000   1.0000   1.0000   1.0000   1.0000   1.0000
     1.0000   1.0000   1.0000   1.0000   1.0000   1.0000   1.0000   1.0000
     1.0000   1.0000   1.0000   1.0000   0.0000   0.0000   0.0000   0.0000
     0.0000   0.0000

          k = 0.2498-0.0612 0.0000 ( 95404 PWs)   bands (ev):

   -17.6059 -17.2332 -16.6332 -15.9710 -15.7015 -15.5840 -13.6754 -12.9914
   -12.1213 -11.9523  -7.8279  -7.6432  -7.5183  -7.4108  -7.3385  -6.7253
    -6.4915  -5.7539  -5.7537  -5.5726  -5.2688  -4.8939  -4.6654  -4.3791
    -4.1013  -4.0612  -3.8750  -3.5587  -1.6112  -1.5349  -1.0055  -0.9542
    -0.4977  -0.1647

     occupation numbers 
     1.0000   1.0000   1.0000   1.0000   1.0000   1.0000   1.0000   1.0000
     1.0000   1.0000   1.0000   1.0000   1.0000   1.0000   1.0000   1.0000
     1.0000   1.0000   1.0000   1.0000   1.0000   1.0000   1.0000   1.0000
     1.0000   1.0000   1.0000   1.0000   0.0000   0.0000   0.0000   0.0000
     0.0000   0.0000

          k = 0.2499-0.0310 0.0000 ( 95381 PWs)   bands (ev):

   -17.6194 -17.1862 -16.6964 -15.9451 -15.7041 -15.5652 -13.7192 -12.9503
   -12.1371 -11.9455  -7.8120  -7.6626  -7.4706  -7.4457  -7.3254  -6.7786
    -6.5202  -5.7216  -5.6437  -5.5766  -5.3790  -4.8301  -4.6588  -4.4365
    -4.1386  -3.9854  -3.8896  -3.5391  -1.6347  -1.6034  -1.0061  -0.9474
    -0.4696  -0.1900

     occupation numbers 
     1.0000   1.0000   1.0000   1.0000   1.0000   1.0000   1.0000   1.0000
     1.0000   1.0000   1.0000   1.0000   1.0000   1.0000   1.0000   1.0000
     1.0000   1.0000   1.0000   1.0000   1.0000   1.0000   1.0000   1.0000
     1.0000   1.0000   1.0000   1.0000   0.0000   0.0000   0.0000   0.0000
     0.0000   0.0000

          k = 0.2500-0.0009 0.0000 ( 95414 PWs)   bands (ev):

   -17.6239 -17.1672 -16.7209 -15.9367 -15.7049 -15.5581 -13.7344 -12.9360
   -12.1428 -11.9433  -7.8035  -7.6710  -7.4921  -7.4103  -7.3276  -6.8050
    -6.5275  -5.7095  -5.5799  -5.5324  -5.4900  -4.8067  -4.6508  -4.4600
    -4.1515  -3.9315  -3.9224  -3.5333  -1.6427  -1.6279  -1.0113  -0.9389
    -0.4600  -0.1872

     occupation numbers 
     1.0000   1.0000   1.0000   1.0000   1.0000   1.0000   1.0000   1.0000
     1.0000   1.0000   1.0000   1.0000   1.0000   1.0000   1.0000   1.0000
     1.0000   1.0000   1.0000   1.0000   1.0000   1.0000   1.0000   1.0000
     1.0000   1.0000   1.0000   1.0000   0.0000   0.0000   0.0000   0.0000
     0.0000   0.0000

          k = 0.2501 0.0293 0.0000 ( 95381 PWs)   bands (ev):

   -17.6194 -17.1861 -16.6965 -15.9451 -15.7041 -15.5652 -13.7192 -12.9503
   -12.1371 -11.9456  -7.8121  -7.6627  -7.4705  -7.4457  -7.3255  -6.7785
    -6.5203  -5.7216  -5.6439  -5.5766  -5.3787  -4.8302  -4.6588  -4.4365
    -4.1387  -3.9853  -3.8899  -3.5390  -1.6347  -1.6035  -1.0061  -0.9474
    -0.4695  -0.1902

     occupation numbers 
     1.0000   1.0000   1.0000   1.0000   1.0000   1.0000   1.0000   1.0000
     1.0000   1.0000   1.0000   1.0000   1.0000   1.0000   1.0000   1.0000
     1.0000   1.0000   1.0000   1.0000   1.0000   1.0000   1.0000   1.0000
     1.0000   1.0000   1.0000   1.0000   0.0000   0.0000   0.0000   0.0000
     0.0000   0.0000

          k = 0.2502 0.0594 0.0000 ( 95407 PWs)   bands (ev):

   -17.6059 -17.2332 -16.6333 -15.9709 -15.7015 -15.5840 -13.6754 -12.9914
   -12.1213 -11.9523  -7.8280  -7.6432  -7.5183  -7.4106  -7.3385  -6.7252
    -6.4916  -5.7539  -5.7539  -5.5727  -5.2686  -4.8939  -4.6654  -4.3791
    -4.1014  -4.0611  -3.8753  -3.5584  -1.6112  -1.5350  -1.0055  -0.9542
    -0.4976  -0.1644

     occupation numbers 
     1.0000   1.0000   1.0000   1.0000   1.0000   1.0000   1.0000   1.0000
     1.0000   1.0000   1.0000   1.0000   1.0000   1.0000   1.0000   1.0000
     1.0000   1.0000   1.0000   1.0000   1.0000   1.0000   1.0000   1.0000
     1.0000   1.0000   1.0000   1.0000   0.0000   0.0000   0.0000   0.0000
     0.0000   0.0000

          k = 0.3337 0.1194 0.0000 ( 95478 PWs)   bands (ev):

   -17.3771 -17.1909 -16.5026 -16.2200 -15.6961 -15.6295 -13.3641 -13.0769
   -12.3108 -12.2234  -8.0368  -7.8897  -7.5920  -7.3271  -7.2030  -6.7934
    -6.5857  -6.1179  -5.9238  -5.6710  -5.1309  -5.1139  -4.5078  -4.4063
    -4.1868  -4.0490  -3.9551  -3.6150  -1.3554  -1.3068  -0.8529  -0.5488
    -0.5114  -0.1669

     occupation numbers 
     1.0000   1.0000   1.0000   1.0000   1.0000   1.0000   1.0000   1.0000
     1.0000   1.0000   1.0000   1.0000   1.0000   1.0000   1.0000   1.0000
     1.0000   1.0000   1.0000   1.0000   1.0000   1.0000   1.0000   1.0000
     1.0000   1.0000   1.0000   1.0000   0.0000   0.0000   0.0000   0.0000
     0.0000   0.0000

          k = 0.3338 0.1496 0.0000 ( 95445 PWs)   bands (ev):

   -17.3409 -17.2470 -16.4223 -16.2782 -15.6834 -15.6495 -13.2957 -13.1480
   -12.2856 -12.2411  -8.0260  -7.9517  -7.5217  -7.3892  -7.0966  -6.8650
    -6.4598  -6.2080  -5.9048  -5.7545  -5.1615  -5.1357  -4.4094  -4.3312
    -4.2623  -4.1276  -3.8417  -3.6623  -1.3084  -1.2660  -0.8461  -0.6484
    -0.4196  -0.1597

     occupation numbers 
     1.0000   1.0000   1.0000   1.0000   1.0000   1.0000   1.0000   1.0000
     1.0000   1.0000   1.0000   1.0000   1.0000   1.0000   1.0000   1.0000
     1.0000   1.0000   1.0000   1.0000   1.0000   1.0000   1.0000   1.0000
     1.0000   1.0000   1.0000   1.0000   0.0000   0.0000   0.0000   0.0000
     0.0000   0.0000

          k = 0.3340 0.1797 0.0000 ( 95466 PWs)   bands (ev):

   -17.2974 -17.2973 -16.3465 -16.3465 -15.6678 -15.6677 -13.2224 -13.2222
   -12.2621 -12.2620  -7.9976  -7.9975  -7.4544  -7.4543  -6.9784  -6.9784
    -6.3241  -6.3241  -5.8417  -5.8414  -5.1577  -5.1576  -4.3341  -4.3340
    -4.2271  -4.2269  -3.7411  -3.7406  -1.2708  -1.2706  -0.7711  -0.7710
    -0.2878  -0.2878

     occupation numbers 
     1.0000   1.0000   1.0000   1.0000   1.0000   1.0000   1.0000   1.0000
     1.0000   1.0000   1.0000   1.0000   1.0000   1.0000   1.0000   1.0000
     1.0000   1.0000   1.0000   1.0000   1.0000   1.0000   1.0000   1.0000
     1.0000   1.0000   1.0000   1.0000   0.0000   0.0000   0.0000   0.0000
     0.0000   0.0000

          k = 0.3341 0.2099 0.0000 ( 95443 PWs)   bands (ev):

   -17.3408 -17.2471 -16.4222 -16.2783 -15.6834 -15.6495 -13.2958 -13.1479
   -12.2857 -12.2410  -8.0259  -7.9518  -7.5219  -7.3891  -7.0966  -6.8650
    -6.4599  -6.2080  -5.9050  -5.7542  -5.1616  -5.1357  -4.4096  -4.3312
    -4.2622  -4.1274  -3.8413  -3.6628  -1.3085  -1.2658  -0.8461  -0.6486
    -0.4196  -0.1596

     occupation numbers 
     1.0000   1.0000   1.0000   1.0000   1.0000   1.0000   1.0000   1.0000
     1.0000   1.0000   1.0000   1.0000   1.0000   1.0000   1.0000   1.0000
     1.0000   1.0000   1.0000   1.0000   1.0000   1.0000   1.0000   1.0000
     1.0000   1.0000   1.0000   1.0000   0.0000   0.0000   0.0000   0.0000
     0.0000   0.0000

          k = 0.3342 0.2400 0.0000 ( 95476 PWs)   bands (ev):

   -17.3770 -17.1909 -16.5025 -16.2201 -15.6961 -15.6295 -13.3641 -13.0768
   -12.3109 -12.2233  -8.0366  -7.8898  -7.5922  -7.3270  -7.2031  -6.7935
    -6.5857  -6.1179  -5.9239  -5.6707  -5.1310  -5.1139  -4.5079  -4.4063
    -4.1866  -4.0489  -3.9548  -3.6155  -1.3555  -1.3066  -0.8529  -0.5488
    -0.5116  -0.1670

     occupation numbers 
     1.0000   1.0000   1.0000   1.0000   1.0000   1.0000   1.0000   1.0000
     1.0000   1.0000   1.0000   1.0000   1.0000   1.0000   1.0000   1.0000
     1.0000   1.0000   1.0000   1.0000   1.0000   1.0000   1.0000   1.0000
     1.0000   1.0000   1.0000   1.0000   0.0000   0.0000   0.0000   0.0000
     0.0000   0.0000

          k = 0.3343 0.2701 0.0000 ( 95432 PWs)   bands (ev):

   -17.4055 -17.1304 -16.5839 -16.1738 -15.7058 -15.6095 -13.4232 -13.0133
   -12.3358 -12.2092  -8.0301  -7.8140  -7.6656  -7.2882  -7.2716  -6.8467
    -6.6227  -6.0512  -5.8836  -5.6154  -5.1189  -5.0596  -4.6036  -4.4512
    -4.1079  -4.0716  -3.9958  -3.6046  -1.3988  -1.3639  -0.8170  -0.6678
    -0.3821  -0.2023

     occupation numbers 
     1.0000   1.0000   1.0000   1.0000   1.0000   1.0000   1.0000   1.0000
     1.0000   1.0000   1.0000   1.0000   1.0000   1.0000   1.0000   1.0000
     1.0000   1.0000   1.0000   1.0000   1.0000   1.0000   1.0000   1.0000
     1.0000   1.0000   1.0000   1.0000   0.0000   0.0000   0.0000   0.0000
     0.0000   0.0000

          k = 0.3331-0.0614 0.0000 ( 95419 PWs)   bands (ev):

   -17.4261 -17.0687 -16.6616 -16.1405 -15.7127 -15.5921 -13.4691 -12.9621
   -12.3579 -12.1989  -8.0079  -7.7396  -7.7302  -7.3479  -7.2314  -6.9654
    -6.6162  -6.0048  -5.7837  -5.5902  -5.1836  -4.9670  -4.6510  -4.4782
    -4.1813  -4.0301  -3.9664  -3.6277  -1.4325  -1.4073  -0.7816  -0.7580
    -0.2754  -0.2143

     occupation numbers 
     1.0000   1.0000   1.0000   1.0000   1.0000   1.0000   1.0000   1.0000
     1.0000   1.0000   1.0000   1.0000   1.0000   1.0000   1.0000   1.0000
     1.0000   1.0000   1.0000   1.0000   1.0000   1.0000   1.0000   1.0000
     1.0000   1.0000   1.0000   1.0000   0.0000   0.0000   0.0000   0.0000
     0.0000   0.0000

          k = 0.3332-0.0313 0.0000 ( 95424 PWs)   bands (ev):

   -17.4385 -17.0140 -16.7263 -16.1206 -15.7167 -15.5801 -13.4982 -12.9283
   -12.3736 -12.1927  -7.9751  -7.8058  -7.6530  -7.3826  -7.2231  -7.0517
    -6.6181  -5.9771  -5.6438  -5.5819  -5.3080  -4.8895  -4.6503  -4.4892
    -4.2690  -3.9716  -3.9454  -3.6698  -1.4535  -1.4292  -0.8391  -0.7355
    -0.2109  -0.2039

     occupation numbers 
     1.0000   1.0000   1.0000   1.0000   1.0000   1.0000   1.0000   1.0000
     1.0000   1.0000   1.0000   1.0000   1.0000   1.0000   1.0000   1.0000
     1.0000   1.0000   1.0000   1.0000   1.0000   1.0000   1.0000   1.0000
     1.0000   1.0000   1.0000   1.0000   0.0000   0.0000   0.0000   0.0000
     0.0000   0.0000

          k = 0.3333-0.0012 0.0000 ( 95428 PWs)   bands (ev):

   -17.4426 -16.9888 -16.7550 -16.1140 -15.7181 -15.5758 -13.5082 -12.9164
   -12.3794 -12.1907  -7.9534  -7.8392  -7.6174  -7.3939  -7.2352  -7.0752
    -6.6208  -5.9678  -5.5804  -5.5230  -5.4254  -4.8593  -4.6423  -4.4898
    -4.3062  -3.9622  -3.9207  -3.6945  -1.4607  -1.4350  -0.8636  -0.7235
    -0.2068  -0.1785

     occupation numbers 
     1.0000   1.0000   1.0000   1.0000   1.0000   1.0000   1.0000   1.0000
     1.0000   1.0000   1.0000   1.0000   1.0000   1.0000   1.0000   1.0000
     1.0000   1.0000   1.0000   1.0000   1.0000   1.0000   1.0000   1.0000
     1.0000   1.0000   1.0000   1.0000   0.0000   0.0000   0.0000   0.0000
     0.0000   0.0000

          k = 0.3334 0.0290 0.0000 ( 95424 PWs)   bands (ev):

   -17.4385 -17.0140 -16.7263 -16.1206 -15.7167 -15.5801 -13.4982 -12.9283
   -12.3736 -12.1928  -7.9752  -7.8057  -7.6530  -7.3826  -7.2232  -7.0516
    -6.6181  -5.9771  -5.6439  -5.5820  -5.3079  -4.8895  -4.6502  -4.4893
    -4.2691  -3.9720  -3.9452  -3.6695  -1.4535  -1.4292  -0.8390  -0.7355
    -0.2109  -0.2038

     occupation numbers 
     1.0000   1.0000   1.0000   1.0000   1.0000   1.0000   1.0000   1.0000
     1.0000   1.0000   1.0000   1.0000   1.0000   1.0000   1.0000   1.0000
     1.0000   1.0000   1.0000   1.0000   1.0000   1.0000   1.0000   1.0000
     1.0000   1.0000   1.0000   1.0000   0.0000   0.0000   0.0000   0.0000
     0.0000   0.0000

          k = 0.3335 0.0591 0.0000 ( 95419 PWs)   bands (ev):

   -17.4261 -17.0686 -16.6616 -16.1405 -15.7127 -15.5921 -13.4691 -12.9621
   -12.3579 -12.1990  -8.0081  -7.7395  -7.7302  -7.3479  -7.2315  -6.9654
    -6.6161  -6.0048  -5.7838  -5.5903  -5.1835  -4.9670  -4.6509  -4.4783
    -4.1815  -4.0304  -3.9664  -3.6273  -1.4324  -1.4074  -0.7816  -0.7581
    -0.2752  -0.2142

     occupation numbers 
     1.0000   1.0000   1.0000   1.0000   1.0000   1.0000   1.0000   1.0000
     1.0000   1.0000   1.0000   1.0000   1.0000   1.0000   1.0000   1.0000
     1.0000   1.0000   1.0000   1.0000   1.0000   1.0000   1.0000   1.0000
     1.0000   1.0000   1.0000   1.0000   0.0000   0.0000   0.0000   0.0000
     0.0000   0.0000

          k = 0.3336 0.0893 0.0000 ( 95432 PWs)   bands (ev):

   -17.4056 -17.1303 -16.5839 -16.1738 -15.7058 -15.6095 -13.4232 -13.0133
   -12.3357 -12.2092  -8.0303  -7.8140  -7.6655  -7.2881  -7.2717  -6.8465
    -6.6228  -6.0512  -5.8836  -5.6156  -5.1188  -5.0596  -4.6035  -4.4513
    -4.1081  -4.0718  -3.9959  -3.6041  -1.3987  -1.3641  -0.8170  -0.6678
    -0.3819  -0.2023

     occupation numbers 
     1.0000   1.0000   1.0000   1.0000   1.0000   1.0000   1.0000   1.0000
     1.0000   1.0000   1.0000   1.0000   1.0000   1.0000   1.0000   1.0000
     1.0000   1.0000   1.0000   1.0000   1.0000   1.0000   1.0000   1.0000
     1.0000   1.0000   1.0000   1.0000   0.0000   0.0000   0.0000   0.0000
     0.0000   0.0000

          k = 0.4172 0.1493 0.0000 ( 95485 PWs)   bands (ev):

   -17.1565 -17.0829 -16.5273 -16.4335 -15.6702 -15.6468 -13.1200 -13.0237
   -12.5320 -12.4879  -8.1878  -8.1471  -7.3835  -7.2020  -7.0061  -6.8606
    -6.7850  -6.5412  -5.9625  -5.8472  -5.1694  -5.1105  -4.5726  -4.4748
    -4.1951  -4.0502  -3.7553  -3.6406  -1.2420  -1.1891  -0.7442  -0.7158
    -0.2521  -0.1215

     occupation numbers 
     1.0000   1.0000   1.0000   1.0000   1.0000   1.0000   1.0000   1.0000
     1.0000   1.0000   1.0000   1.0000   1.0000   1.0000   1.0000   1.0000
     1.0000   1.0000   1.0000   1.0000   1.0000   1.0000   1.0000   1.0000
     1.0000   1.0000   1.0000   1.0000   0.0000   0.0000   0.0000   0.0000
     0.0000   0.0000

          k = 0.4173 0.1794 0.0000 ( 95518 PWs)   bands (ev):

   -17.1224 -17.1223 -16.4778 -16.4777 -15.6587 -15.6586 -13.0736 -13.0735
   -12.5082 -12.5081  -8.1766  -8.1765  -7.2867  -7.2865  -6.9178  -6.9177
    -6.6667  -6.6666  -5.9295  -5.9293  -5.1426  -5.1425  -4.5309  -4.5308
    -4.1081  -4.1078  -3.6781  -3.6774  -1.2104  -1.2101  -0.7586  -0.7585
    -0.1911  -0.1910

     occupation numbers 
     1.0000   1.0000   1.0000   1.0000   1.0000   1.0000   1.0000   1.0000
     1.0000   1.0000   1.0000   1.0000   1.0000   1.0000   1.0000   1.0000
     1.0000   1.0000   1.0000   1.0000   1.0000   1.0000   1.0000   1.0000
     1.0000   1.0000   1.0000   1.0000   0.0000   0.0000   0.0000   0.0000
     0.0000   0.0000

          k = 0.4174 0.2096 0.0000 ( 95491 PWs)   bands (ev):

   -17.1564 -17.0830 -16.5272 -16.4335 -15.6702 -15.6469 -13.1201 -13.0236
   -12.5321 -12.4878  -8.1877  -8.1472  -7.3837  -7.2018  -7.0061  -6.8607
    -6.7850  -6.5412  -5.9627  -5.8469  -5.1695  -5.1105  -4.5725  -4.4748
    -4.1954  -4.0499  -3.7547  -3.6414  -1.2417  -1.1894  -0.7443  -0.7158
    -0.2522  -0.1214

     occupation numbers 
     1.0000   1.0000   1.0000   1.0000   1.0000   1.0000   1.0000   1.0000
     1.0000   1.0000   1.0000   1.0000   1.0000   1.0000   1.0000   1.0000
     1.0000   1.0000   1.0000   1.0000   1.0000   1.0000   1.0000   1.0000
     1.0000   1.0000   1.0000   1.0000   0.0000   0.0000   0.0000   0.0000
     0.0000   0.0000

          k = 0.4175 0.2397 0.0000 ( 95478 PWs)   bands (ev):

   -17.1849 -17.0389 -16.5807 -16.3955 -15.6807 -15.6356 -13.1611 -12.9723
   -12.5593 -12.4712  -8.1805  -8.1003  -7.4921  -7.1286  -7.0827  -6.9864
    -6.7544  -6.4419  -5.9330  -5.7357  -5.1809  -5.0852  -4.5956  -4.4082
    -4.3037  -4.0243  -3.8597  -3.6521  -1.2566  -1.1925  -0.6960  -0.6130
    -0.3072  -0.0895

     occupation numbers 
     1.0000   1.0000   1.0000   1.0000   1.0000   1.0000   1.0000   1.0000
     1.0000   1.0000   1.0000   1.0000   1.0000   1.0000   1.0000   1.0000
     1.0000   1.0000   1.0000   1.0000   1.0000   1.0000   1.0000   1.0000
     1.0000   1.0000   1.0000   1.0000   0.0000   0.0000   0.0000   0.0000
     0.0000   0.0000

          k = 0.4176 0.2699 0.0000 ( 95467 PWs)   bands (ev):

   -17.2074 -16.9910 -16.6367 -16.3648 -15.6895 -15.6257 -13.1952 -12.9220
   -12.5889 -12.4584  -8.1557  -8.0380  -7.6056  -7.1547  -7.1405  -7.0478
    -6.7332  -6.3698  -5.8392  -5.6249  -5.1637  -5.0827  -4.5985  -4.4147
    -4.3354  -4.0292  -3.9789  -3.7064  -1.2421  -1.2096  -0.6333  -0.4729
    -0.3627  -0.1500

     occupation numbers 
     1.0000   1.0000   1.0000   1.0000   1.0000   1.0000   1.0000   1.0000
     1.0000   1.0000   1.0000   1.0000   1.0000   1.0000   1.0000   1.0000
     1.0000   1.0000   1.0000   1.0000   1.0000   1.0000   1.0000   1.0000
     1.0000   1.0000   1.0000   1.0000   0.0000   0.0000   0.0000   0.0000
     0.0000   0.0000

          k = 0.4177 0.3000 0.0000 ( 95471 PWs)   bands (ev):

   -17.2236 -16.9404 -16.6935 -16.3423 -15.6962 -15.6180 -13.2206 -12.8760
   -12.6191 -12.4492  -8.1155  -7.9653  -7.7149  -7.2960  -7.1800  -6.9895
    -6.7430  -6.3214  -5.6976  -5.5461  -5.1227  -5.1094  -4.6048  -4.4794
    -4.2645  -4.1004  -4.0539  -3.7883  -1.2282  -1.2044  -0.5729  -0.4162
    -0.3208  -0.2006

     occupation numbers 
     1.0000   1.0000   1.0000   1.0000   1.0000   1.0000   1.0000   1.0000
     1.0000   1.0000   1.0000   1.0000   1.0000   1.0000   1.0000   1.0000
     1.0000   1.0000   1.0000   1.0000   1.0000   1.0000   1.0000   1.0000
     1.0000   1.0000   1.0000   1.0000   0.0000   0.0000   0.0000   0.0000
     0.0000   0.0000

          k = 0.4166-0.0316 0.0000 ( 95459 PWs)   bands (ev):

   -17.2334 -16.8904 -16.7473 -16.3286 -15.7004 -15.6131 -13.2364 -12.8402
   -12.6450 -12.4438  -8.0673  -7.8956  -7.8068  -7.4105  -7.2029  -6.9388
    -6.7682  -6.2935  -5.5322  -5.5081  -5.2179  -5.0404  -4.6439  -4.4507
    -4.2170  -4.2116  -4.0675  -3.8737  -1.2413  -1.1638  -0.5431  -0.4380
    -0.2452  -0.1818

     occupation numbers 
     1.0000   1.0000   1.0000   1.0000   1.0000   1.0000   1.0000   1.0000
     1.0000   1.0000   1.0000   1.0000   1.0000   1.0000   1.0000   1.0000
     1.0000   1.0000   1.0000   1.0000   1.0000   1.0000   1.0000   1.0000
     1.0000   1.0000   1.0000   1.0000   0.0000   0.0000   0.0000   0.0000
     0.0000   0.0000

          k = 0.4167-0.0014 0.0000 ( 95502 PWs)   bands (ev):

   -17.2367 -16.8605 -16.7786 -16.3240 -15.7018 -15.6114 -13.2417 -12.8256
   -12.6562 -12.4420  -8.0392  -7.8624  -7.8498  -7.4590  -7.2104  -6.9155
    -6.7837  -6.2844  -5.4979  -5.3869  -5.3396  -5.0080  -4.6625  -4.4106
    -4.2735  -4.2085  -4.0548  -3.9196  -1.2460  -1.1458  -0.5456  -0.4286
    -0.2679  -0.1097

     occupation numbers 
     1.0000   1.0000   1.0000   1.0000   1.0000   1.0000   1.0000   1.0000
     1.0000   1.0000   1.0000   1.0000   1.0000   1.0000   1.0000   1.0000
     1.0000   1.0000   1.0000   1.0000   1.0000   1.0000   1.0000   1.0000
     1.0000   1.0000   1.0000   1.0000   0.0000   0.0000   0.0000   0.0000
     0.0000   0.0000

          k = 0.4168 0.0287 0.0000 ( 95465 PWs)   bands (ev):

   -17.2335 -16.8904 -16.7473 -16.3286 -15.7004 -15.6131 -13.2364 -12.8403
   -12.6449 -12.4438  -8.0674  -7.8956  -7.8067  -7.4105  -7.2029  -6.9389
    -6.7681  -6.2935  -5.5321  -5.5082  -5.2179  -5.0404  -4.6438  -4.4507
    -4.2174  -4.2118  -4.0674  -3.8733  -1.2413  -1.1639  -0.5431  -0.4379
    -0.2453  -0.1816

     occupation numbers 
     1.0000   1.0000   1.0000   1.0000   1.0000   1.0000   1.0000   1.0000
     1.0000   1.0000   1.0000   1.0000   1.0000   1.0000   1.0000   1.0000
     1.0000   1.0000   1.0000   1.0000   1.0000   1.0000   1.0000   1.0000
     1.0000   1.0000   1.0000   1.0000   0.0000   0.0000   0.0000   0.0000
     0.0000   0.0000

          k = 0.4169 0.0588 0.0000 ( 95471 PWs)   bands (ev):

   -17.2237 -16.9403 -16.6935 -16.3424 -15.6963 -15.6180 -13.2206 -12.8761
   -12.6190 -12.4493  -8.1157  -7.9653  -7.7148  -7.2960  -7.1800  -6.9897
    -6.7429  -6.3214  -5.6975  -5.5463  -5.1227  -5.1092  -4.6046  -4.4794
    -4.2648  -4.1008  -4.0540  -3.7877  -1.2281  -1.2046  -0.5729  -0.4160
    -0.3207  -0.2007

     occupation numbers 
     1.0000   1.0000   1.0000   1.0000   1.0000   1.0000   1.0000   1.0000
     1.0000   1.0000   1.0000   1.0000   1.0000   1.0000   1.0000   1.0000
     1.0000   1.0000   1.0000   1.0000   1.0000   1.0000   1.0000   1.0000
     1.0000   1.0000   1.0000   1.0000   0.0000   0.0000   0.0000   0.0000
     0.0000   0.0000

          k = 0.4170 0.0890 0.0000 ( 95465 PWs)   bands (ev):

   -17.2074 -16.9909 -16.6367 -16.3649 -15.6896 -15.6257 -13.1951 -12.9222
   -12.5888 -12.4584  -8.1559  -8.0380  -7.6055  -7.1547  -7.1405  -7.0479
    -6.7331  -6.3698  -5.8392  -5.6252  -5.1635  -5.0827  -4.5985  -4.4146
    -4.3356  -4.0293  -3.9793  -3.7057  -1.2423  -1.2095  -0.6333  -0.4727
    -0.3625  -0.1502

     occupation numbers 
     1.0000   1.0000   1.0000   1.0000   1.0000   1.0000   1.0000   1.0000
     1.0000   1.0000   1.0000   1.0000   1.0000   1.0000   1.0000   1.0000
     1.0000   1.0000   1.0000   1.0000   1.0000   1.0000   1.0000   1.0000
     1.0000   1.0000   1.0000   1.0000   0.0000   0.0000   0.0000   0.0000
     0.0000   0.0000

          k = 0.4171 0.1191 0.0000 ( 95478 PWs)   bands (ev):

   -17.1850 -17.0389 -16.5807 -16.3955 -15.6807 -15.6356 -13.1611 -12.9724
   -12.5591 -12.4713  -8.1807  -8.1002  -7.4919  -7.1288  -7.0827  -6.9863
    -6.7543  -6.4419  -5.9329  -5.7360  -5.1807  -5.0852  -4.5957  -4.4083
    -4.3035  -4.0246  -3.8602  -3.6514  -1.2569  -1.1923  -0.6959  -0.6130
    -0.3071  -0.0896

     occupation numbers 
     1.0000   1.0000   1.0000   1.0000   1.0000   1.0000   1.0000   1.0000
     1.0000   1.0000   1.0000   1.0000   1.0000   1.0000   1.0000   1.0000
     1.0000   1.0000   1.0000   1.0000   1.0000   1.0000   1.0000   1.0000
     1.0000   1.0000   1.0000   1.0000   0.0000   0.0000   0.0000   0.0000
     0.0000   0.0000

          k =-0.5006-0.1791 0.0000 ( 95404 PWs)   bands (ev):

   -17.0292 -17.0291 -16.5573 -16.5572 -15.6537 -15.6537 -12.9614 -12.9612
   -12.6555 -12.6554  -8.2418  -8.2417  -7.0983  -7.0980  -6.9383  -6.9383
    -6.8634  -6.8631  -5.9737  -5.9735  -5.1096  -5.1095  -4.6423  -4.6422
    -4.0471  -4.0467  -3.6500  -3.6492  -1.2203  -1.2200  -0.6957  -0.6956
    -0.2638  -0.2637

     occupation numbers 
     1.0000   1.0000   1.0000   1.0000   1.0000   1.0000   1.0000   1.0000
     1.0000   1.0000   1.0000   1.0000   1.0000   1.0000   1.0000   1.0000
     1.0000   1.0000   1.0000   1.0000   1.0000   1.0000   1.0000   1.0000
     1.0000   1.0000   1.0000   1.0000   0.0000   0.0000   0.0000   0.0000
     0.0000   0.0000

          k =-0.5005-0.1490 0.0000 ( 95416 PWs)   bands (ev):

   -17.0293 -17.0293 -16.5569 -16.5568 -15.6541 -15.6540 -12.9607 -12.9606
   -12.6560 -12.6558  -8.2324  -8.2323  -7.1596  -7.1594  -6.9571  -6.9570
    -6.8066  -6.8064  -5.9413  -5.9411  -5.1142  -5.1141  -4.6291  -4.6290
    -4.0648  -4.0644  -3.6756  -3.6748  -1.2056  -1.2053  -0.6847  -0.6846
    -0.2545  -0.2545

     occupation numbers 
     1.0000   1.0000   1.0000   1.0000   1.0000   1.0000   1.0000   1.0000
     1.0000   1.0000   1.0000   1.0000   1.0000   1.0000   1.0000   1.0000
     1.0000   1.0000   1.0000   1.0000   1.0000   1.0000   1.0000   1.0000
     1.0000   1.0000   1.0000   1.0000   0.0000   0.0000   0.0000   0.0000
     0.0000   0.0000

          k =-0.5004-0.1188 0.0000 ( 95404 PWs)   bands (ev):

   -17.0298 -17.0297 -16.5558 -16.5557 -15.6551 -15.6550 -12.9589 -12.9587
   -12.6572 -12.6571  -8.2048  -8.2047  -7.2868  -7.2867  -6.9701  -6.9701
    -6.7313  -6.7312  -5.8501  -5.8498  -5.1264  -5.1263  -4.5924  -4.5923
    -4.1159  -4.1156  -3.7458  -3.7450  -1.1694  -1.1691  -0.6476  -0.6475
    -0.2305  -0.2304

     occupation numbers 
     1.0000   1.0000   1.0000   1.0000   1.0000   1.0000   1.0000   1.0000
     1.0000   1.0000   1.0000   1.0000   1.0000   1.0000   1.0000   1.0000
     1.0000   1.0000   1.0000   1.0000   1.0000   1.0000   1.0000   1.0000
     1.0000   1.0000   1.0000   1.0000   0.0000   0.0000   0.0000   0.0000
     0.0000   0.0000

          k =-0.5003-0.0887 0.0000 ( 95508 PWs)   bands (ev):

   -17.0304 -17.0303 -16.5543 -16.5542 -15.6565 -15.6564 -12.9563 -12.9562
   -12.6590 -12.6588  -8.1603  -8.1602  -7.4268  -7.4267  -6.9794  -6.9793
    -6.6753  -6.6752  -5.7175  -5.7173  -5.1430  -5.1429  -4.5406  -4.5405
    -4.1923  -4.1921  -3.8447  -3.8441  -1.1296  -1.1294  -0.5765  -0.5765
    -0.2013  -0.2011

     occupation numbers 
     1.0000   1.0000   1.0000   1.0000   1.0000   1.0000   1.0000   1.0000
     1.0000   1.0000   1.0000   1.0000   1.0000   1.0000   1.0000   1.0000
     1.0000   1.0000   1.0000   1.0000   1.0000   1.0000   1.0000   1.0000
     1.0000   1.0000   1.0000   1.0000   0.0000   0.0000   0.0000   0.0000
     0.0000   0.0000

          k =-0.5002-0.0586 0.0000 ( 95528 PWs)   bands (ev):

   -17.0310 -17.0309 -16.5529 -16.5528 -15.6579 -15.6578 -12.9538 -12.9537
   -12.6607 -12.6606  -8.1024  -8.1023  -7.5590  -7.5590  -6.9870  -6.9870
    -6.6390  -6.6389  -5.5690  -5.5688  -5.1621  -5.1619  -4.4940  -4.4937
    -4.2667  -4.2666  -3.9542  -3.9538  -1.1003  -1.1002  -0.4707  -0.4705
    -0.1776  -0.1774

     occupation numbers 
     1.0000   1.0000   1.0000   1.0000   1.0000   1.0000   1.0000   1.0000
     1.0000   1.0000   1.0000   1.0000   1.0000   1.0000   1.0000   1.0000
     1.0000   1.0000   1.0000   1.0000   1.0000   1.0000   1.0000   1.0000
     1.0000   1.0000   1.0000   1.0000   0.0000   0.0000   0.0000   0.0000
     0.0000   0.0000

          k =-0.5001-0.0284 0.0000 ( 95526 PWs)   bands (ev):

   -17.0314 -17.0314 -16.5518 -16.5517 -15.6589 -15.6589 -12.9519 -12.9518
   -12.6620 -12.6619  -8.0418  -8.0417  -7.6662  -7.6662  -6.9922  -6.9921
    -6.6187  -6.6186  -5.4384  -5.4382  -5.1838  -5.1836  -4.4956  -4.4954
    -4.2771  -4.2771  -4.0572  -4.0569  -1.0845  -1.0845  -0.3428  -0.3426
    -0.1718  -0.1715

     occupation numbers 
     1.0000   1.0000   1.0000   1.0000   1.0000   1.0000   1.0000   1.0000
     1.0000   1.0000   1.0000   1.0000   1.0000   1.0000   1.0000   1.0000
     1.0000   1.0000   1.0000   1.0000   1.0000   1.0000   1.0000   1.0000
     1.0000   1.0000   1.0000   1.0000   0.0000   0.0000   0.0000   0.0000
     0.0000   0.0000

          k =-0.5012-0.3600 0.0000 ( 95522 PWs)   bands (ev):

   -17.0316 -17.0315 -16.5514 -16.5513 -15.6593 -15.6592 -12.9512 -12.9512
   -12.6625 -12.6624  -8.0105  -8.0105  -7.7133  -7.7132  -6.9940  -6.9940
    -6.6122  -6.6121  -5.3789  -5.3789  -5.1984  -5.1984  -4.5146  -4.5146
    -4.2477  -4.2477  -4.1144  -4.1144  -1.0798  -1.0797  -0.2324  -0.2323
    -0.2131  -0.2131

     occupation numbers 
     1.0000   1.0000   1.0000   1.0000   1.0000   1.0000   1.0000   1.0000
     1.0000   1.0000   1.0000   1.0000   1.0000   1.0000   1.0000   1.0000
     1.0000   1.0000   1.0000   1.0000   1.0000   1.0000   1.0000   1.0000
     1.0000   1.0000   1.0000   1.0000   0.0000   0.0000   0.0000   0.0000
     0.0000   0.0000

     the Fermi energy is    -2.2114 ev

!    total energy              =    -164.01326456 Ry
     Harris-Foulkes estimate   =    -164.01326456 Ry
     estimated scf accuracy    <          1.9E-09 Ry

     The total energy is the sum of the following terms:

     one-electron contribution =   -1266.73938439 Ry
     hartree contribution      =     638.73379251 Ry
     xc contribution           =     -36.83350306 Ry
     ewald contribution        =     500.82583038 Ry
     smearing contrib. (-TS)   =      -0.00000000 Ry

     convergence has been achieved in  13 iterations

     Forces acting on atoms (Ry/au):

     atom    1 type  1   force =    -0.00161419   -0.00060745    0.00108256
     atom    2 type  1   force =    -0.00161463   -0.00060308   -0.00107114
     atom    3 type  1   force =    -0.00159531    0.00059404   -0.00105185
     atom    4 type  1   force =    -0.00159583    0.00058984    0.00106395
     atom    5 type  2   force =     0.00127460    0.00030251    0.00223137
     atom    6 type  2   force =     0.00127511    0.00030452   -0.00223708
     atom    7 type  2   force =     0.00125240   -0.00029721   -0.00224772
     atom    8 type  2   force =     0.00125072   -0.00029413    0.00223932
     atom    9 type  2   force =     0.00068503    0.00000554   -0.00124172
     atom   10 type  2   force =     0.00068212    0.00000543    0.00123232
     The non-local contrib.  to forces
     atom    1 type  1   force =     0.34582525    0.18941043   -0.39281651
     atom    2 type  1   force =     0.34582384    0.18941795    0.39281348
     atom    3 type  1   force =     0.34444812   -0.19183403    0.39283182
     atom    4 type  1   force =     0.34444891   -0.19183558   -0.39283612
     atom    5 type  2   force =    -0.06854449   -0.11220403   -0.39948176
     atom    6 type  2   force =    -0.06854622   -0.11219907    0.39948766
     atom    7 type  2   force =    -0.06779590    0.11264746    0.39949969
     atom    8 type  2   force =    -0.06779657    0.11265026   -0.39950525
[...]
   -12.7630 -12.4848  -7.9982  -7.8530  -7.8196  -7.4769  -7.2709  -6.9764
    -6.8608  -6.3788  -5.5093  -5.4173  -5.3732  -5.0849  -4.7360  -4.4179
    -4.2990  -4.2752  -4.1443  -3.9983  -1.3682  -1.3136  -0.6365  -0.5461
    -0.3832  -0.3206

     occupation numbers 
     1.0000   1.0000   1.0000   1.0000   1.0000   1.0000   1.0000   1.0000
     1.0000   1.0000   1.0000   1.0000   1.0000   1.0000   1.0000   1.0000
     1.0000   1.0000   1.0000   1.0000   1.0000   1.0000   1.0000   1.0000
     1.0000   1.0000   1.0000   1.0000   0.0000   0.0000   0.0000   0.0000
     0.0000   0.0000

          k = 0.4046 0.0287 0.0000 ( 98487 PWs)   bands (ev):

   -17.3096 -16.9891 -16.8171 -16.4121 -15.7647 -15.6970 -13.3231 -12.8849
   -12.7414 -12.4870  -8.0286  -7.8856  -7.7756  -7.4298  -7.2636  -6.9986
    -6.8447  -6.3872  -5.5570  -5.5232  -5.2573  -5.1107  -4.7164  -4.4502
    -4.2949  -4.2265  -4.1616  -3.9632  -1.3638  -1.3241  -0.6338  -0.5545
    -0.3706  -0.3629

     occupation numbers 
     1.0000   1.0000   1.0000   1.0000   1.0000   1.0000   1.0000   1.0000
     1.0000   1.0000   1.0000   1.0000   1.0000   1.0000   1.0000   1.0000
     1.0000   1.0000   1.0000   1.0000   1.0000   1.0000   1.0000   1.0000
     1.0000   1.0000   1.0000   1.0000   0.0000   0.0000   0.0000   0.0000
     0.0000   0.0000

          k = 0.4047 0.0587 0.0000 ( 98494 PWs)   bands (ev):

   -17.3002 -17.0318 -16.7702 -16.4261 -15.7614 -15.7008 -13.3069 -12.9335
   -12.7021 -12.4934  -8.0798  -7.9535  -7.6846  -7.3198  -7.2410  -7.0451
    -6.8182  -6.4127  -5.7176  -5.5719  -5.1664  -5.1622  -4.6655  -4.4848
    -4.3204  -4.1566  -4.1348  -3.8971  -1.3515  -1.3478  -0.6627  -0.5293
    -0.4794  -0.3220

     occupation numbers 
     1.0000   1.0000   1.0000   1.0000   1.0000   1.0000   1.0000   1.0000
     1.0000   1.0000   1.0000   1.0000   1.0000   1.0000   1.0000   1.0000
     1.0000   1.0000   1.0000   1.0000   1.0000   1.0000   1.0000   1.0000
     1.0000   1.0000   1.0000   1.0000   0.0000   0.0000   0.0000   0.0000
     0.0000   0.0000

          k = 0.4048 0.0888 0.0000 ( 98490 PWs)   bands (ev):

   -17.2846 -17.0783 -16.7170 -16.4488 -15.7561 -15.7067 -13.2806 -12.9882
   -12.6621 -12.5042  -8.1228  -8.0234  -7.5799  -7.2013  -7.1877  -7.0946
    -6.8046  -6.4567  -5.8586  -5.6627  -5.1973  -5.1249  -4.6248  -4.4574
    -4.3801  -4.1286  -4.0351  -3.8332  -1.3686  -1.3346  -0.7184  -0.6029
    -0.4680  -0.2773

     occupation numbers 
     1.0000   1.0000   1.0000   1.0000   1.0000   1.0000   1.0000   1.0000
     1.0000   1.0000   1.0000   1.0000   1.0000   1.0000   1.0000   1.0000
     1.0000   1.0000   1.0000   1.0000   1.0000   1.0000   1.0000   1.0000
     1.0000   1.0000   1.0000   1.0000   0.0000   0.0000   0.0000   0.0000
     0.0000   0.0000

          k = 0.4049 0.1188 0.0000 ( 98497 PWs)   bands (ev):

   -17.2630 -17.1234 -16.6630 -16.4797 -15.7492 -15.7143 -13.2454 -13.0447
   -12.6251 -12.5194  -8.1506  -8.0826  -7.4758  -7.1707  -7.1414  -7.0248
    -6.8176  -6.5219  -5.9574  -5.7792  -5.2032  -5.1208  -4.6110  -4.4454
    -4.3672  -4.1174  -3.9398  -3.7892  -1.3729  -1.3197  -0.7748  -0.7164
    -0.3994  -0.2266

     occupation numbers 
     1.0000   1.0000   1.0000   1.0000   1.0000   1.0000   1.0000   1.0000
     1.0000   1.0000   1.0000   1.0000   1.0000   1.0000   1.0000   1.0000
     1.0000   1.0000   1.0000   1.0000   1.0000   1.0000   1.0000   1.0000
     1.0000   1.0000   1.0000   1.0000   0.0000   0.0000   0.0000   0.0000
     0.0000   0.0000

          k =-0.4860-0.1787 0.0000 ( 98536 PWs)   bands (ev):

   -17.1263 -17.1262 -16.6304 -16.6303 -15.7284 -15.7284 -13.0569 -13.0568
   -12.6899 -12.6899  -8.2078  -8.2078  -7.1321  -7.1321  -6.9712  -6.9712
    -6.9195  -6.9195  -6.0085  -6.0085  -5.1411  -5.1410  -4.6364  -4.6364
    -4.1323  -4.1323  -3.7823  -3.7823  -1.3314  -1.3313  -0.7724  -0.7723
    -0.3277  -0.3276

     occupation numbers 
     1.0000   1.0000   1.0000   1.0000   1.0000   1.0000   1.0000   1.0000
     1.0000   1.0000   1.0000   1.0000   1.0000   1.0000   1.0000   1.0000
     1.0000   1.0000   1.0000   1.0000   1.0000   1.0000   1.0000   1.0000
     1.0000   1.0000   1.0000   1.0000   0.0000   0.0000   0.0000   0.0000
     0.0000   0.0000

          k =-0.4859-0.1486 0.0000 ( 98526 PWs)   bands (ev):

   -17.1264 -17.1263 -16.6301 -16.6300 -15.7287 -15.7287 -13.0563 -13.0562
   -12.6904 -12.6903  -8.1985  -8.1985  -7.1767  -7.1766  -7.0141  -7.0140
    -6.8569  -6.8568  -5.9754  -5.9753  -5.1454  -5.1453  -4.6250  -4.6249
    -4.1503  -4.1503  -3.8016  -3.8015  -1.3216  -1.3216  -0.7620  -0.7620
    -0.3207  -0.3207

     occupation numbers 
     1.0000   1.0000   1.0000   1.0000   1.0000   1.0000   1.0000   1.0000
     1.0000   1.0000   1.0000   1.0000   1.0000   1.0000   1.0000   1.0000
     1.0000   1.0000   1.0000   1.0000   1.0000   1.0000   1.0000   1.0000
     1.0000   1.0000   1.0000   1.0000   0.0000   0.0000   0.0000   0.0000
     0.0000   0.0000

          k =-0.4858-0.1186 0.0000 ( 98516 PWs)   bands (ev):

   -17.1267 -17.1267 -16.6292 -16.6291 -15.7296 -15.7295 -13.0547 -13.0547
   -12.6915 -12.6915  -8.1711  -8.1711  -7.2880  -7.2880  -7.0380  -7.0380
    -6.7893  -6.7893  -5.8834  -5.8833  -5.1573  -5.1572  -4.5936  -4.5936
    -4.2015  -4.2014  -3.8548  -3.8547  -1.2973  -1.2972  -0.7283  -0.7282
    -0.3030  -0.3029

     occupation numbers 
     1.0000   1.0000   1.0000   1.0000   1.0000   1.0000   1.0000   1.0000
     1.0000   1.0000   1.0000   1.0000   1.0000   1.0000   1.0000   1.0000
     1.0000   1.0000   1.0000   1.0000   1.0000   1.0000   1.0000   1.0000
     1.0000   1.0000   1.0000   1.0000   0.0000   0.0000   0.0000   0.0000
     0.0000   0.0000

          k =-0.4857-0.0885 0.0000 ( 98474 PWs)   bands (ev):

   -17.1272 -17.1271 -16.6280 -16.6279 -15.7307 -15.7306 -13.0526 -13.0525
   -12.6931 -12.6930  -8.1268  -8.1268  -7.4192  -7.4192  -7.0496  -7.0496
    -6.7418  -6.7418  -5.7514  -5.7513  -5.1748  -5.1747  -4.5522  -4.5521
    -4.2739  -4.2738  -3.9312  -3.9312  -1.2697  -1.2696  -0.6664  -0.6663
    -0.2818  -0.2817

     occupation numbers 
     1.0000   1.0000   1.0000   1.0000   1.0000   1.0000   1.0000   1.0000
     1.0000   1.0000   1.0000   1.0000   1.0000   1.0000   1.0000   1.0000
     1.0000   1.0000   1.0000   1.0000   1.0000   1.0000   1.0000   1.0000
     1.0000   1.0000   1.0000   1.0000   0.0000   0.0000   0.0000   0.0000
     0.0000   0.0000

          k =-0.4856-0.0584 0.0000 ( 98474 PWs)   bands (ev):

   -17.1276 -17.1276 -16.6269 -16.6268 -15.7318 -15.7318 -13.0504 -13.0504
   -12.6947 -12.6946  -8.0692  -8.0692  -7.5461  -7.5461  -7.0574  -7.0574
    -6.7115  -6.7114  -5.6038  -5.6038  -5.1976  -5.1975  -4.5292  -4.5291
    -4.3301  -4.3300  -4.0184  -4.0183  -1.2482  -1.2481  -0.5763  -0.5762
    -0.2654  -0.2653

     occupation numbers 
     1.0000   1.0000   1.0000   1.0000   1.0000   1.0000   1.0000   1.0000
     1.0000   1.0000   1.0000   1.0000   1.0000   1.0000   1.0000   1.0000
     1.0000   1.0000   1.0000   1.0000   1.0000   1.0000   1.0000   1.0000
     1.0000   1.0000   1.0000   1.0000   0.0000   0.0000   0.0000   0.0000
     0.0000   0.0000

          k =-0.4855-0.0284 0.0000 ( 98414 PWs)   bands (ev):

   -17.1279 -17.1279 -16.6260 -16.6259 -15.7326 -15.7326 -13.0488 -13.0488
   -12.6958 -12.6958  -8.0085  -8.0085  -7.6505  -7.6505  -7.0623  -7.0623
    -6.6946  -6.6946  -5.4705  -5.4704  -5.2280  -5.2279  -4.5593  -4.5592
    -4.3169  -4.3169  -4.1026  -4.1026  -1.2358  -1.2358  -0.4666  -0.4665
    -0.2687  -0.2687

     occupation numbers 
     1.0000   1.0000   1.0000   1.0000   1.0000   1.0000   1.0000   1.0000
     1.0000   1.0000   1.0000   1.0000   1.0000   1.0000   1.0000   1.0000
     1.0000   1.0000   1.0000   1.0000   1.0000   1.0000   1.0000   1.0000
     1.0000   1.0000   1.0000   1.0000   0.0000   0.0000   0.0000   0.0000
     0.0000   0.0000

          k =-0.4866-0.3590 0.0000 ( 98470 PWs)   bands (ev):

   -17.1281 -17.1280 -16.6257 -16.6256 -15.7330 -15.7329 -13.0482 -13.0482
   -12.6963 -12.6963  -7.9769  -7.9768  -7.6971  -7.6971  -7.0640  -7.0639
    -6.6892  -6.6892  -5.4049  -5.4048  -5.2520  -5.2520  -4.5842  -4.5842
    -4.2869  -4.2868  -4.1489  -4.1489  -1.2319  -1.2319  -0.3749  -0.3748
    -0.3199  -0.3198

     occupation numbers 
     1.0000   1.0000   1.0000   1.0000   1.0000   1.0000   1.0000   1.0000
     1.0000   1.0000   1.0000   1.0000   1.0000   1.0000   1.0000   1.0000
     1.0000   1.0000   1.0000   1.0000   1.0000   1.0000   1.0000   1.0000
     1.0000   1.0000   1.0000   1.0000   0.0000   0.0000   0.0000   0.0000
     0.0000   0.0000

     the Fermi energy is    -2.2782 ev

!    total energy              =    -164.01484902 Ry
     Harris-Foulkes estimate   =    -164.01484902 Ry
     estimated scf accuracy    <          1.1E-11 Ry

     The total energy is the sum of the following terms:

     one-electron contribution =   -1229.76446697 Ry
     hartree contribution      =     620.06239257 Ry
     xc contribution           =     -36.77830496 Ry
     ewald contribution        =     482.46553034 Ry
     smearing contrib. (-TS)   =      -0.00000000 Ry

     convergence has been achieved in  16 iterations

     Forces acting on atoms (Ry/au):

     atom    1 type  1   force =     0.00003416    0.00005257    0.00006287
     atom    2 type  1   force =     0.00003231    0.00004999   -0.00006219
     atom    3 type  1   force =     0.00001909   -0.00005245   -0.00006035
     atom    4 type  1   force =     0.00002139   -0.00005236    0.00006358
     atom    5 type  2   force =     0.00001609    0.00002948   -0.00004488
     atom    6 type  2   force =     0.00001362    0.00002770    0.00004129
     atom    7 type  2   force =     0.00001987   -0.00002785    0.00003857
     atom    8 type  2   force =     0.00002153   -0.00003178   -0.00003914
     atom    9 type  2   force =    -0.00008920    0.00000210    0.00004709
     atom   10 type  2   force =    -0.00008886    0.00000261   -0.00004683
     The non-local contrib.  to forces
     atom    1 type  1   force =     0.35282526    0.18608994   -0.39275628
     atom    2 type  1   force =     0.35281658    0.18608973    0.39275838
     atom    3 type  1   force =     0.35153157   -0.18851636    0.39276460
     atom    4 type  1   force =     0.35155165   -0.18850260   -0.39275537
     atom    5 type  2   force =    -0.07043512   -0.09971291   -0.40365034
     atom    6 type  2   force =    -0.07045281   -0.09968897    0.40365575
     atom    7 type  2   force =    -0.06975398    0.10018812    0.40365538
     atom    8 type  2   force =    -0.06975209    0.10018441   -0.40365715
     atom    9 type  2   force =    -0.32089648    0.00108830    0.28481617
     atom   10 type  2   force =    -0.32088455    0.00109486   -0.28483257
     The ionic contribution  to forces
     atom    1 type  1   force =    -1.04821113   -1.14063721    5.58363965
     atom    2 type  1   force =    -1.04817949   -1.14052301   -5.58367806
     atom    3 type  1   force =    -1.04034382    1.14768055   -5.58352633
     atom    4 type  1   force =    -1.04037862    1.14776432    5.58325954
     atom    5 type  2   force =     0.26196619    0.39078798   11.75285542
     atom    6 type  2   force =     0.26198933    0.39087412  -11.75304033
     atom    7 type  2   force =     0.25933972   -0.39265900  -11.75282273
     atom    8 type  2   force =     0.25932505   -0.39248396   11.75274725
     atom    9 type  2   force =     1.56726368   -0.00544426   -4.08205742
     atom   10 type  2   force =     1.56722908   -0.00535951    4.08262302
     The local contribution  to forces
     atom    1 type  1   force =     0.69542004    0.95459856   -5.19082165
     atom    2 type  1   force =     0.69539509    0.95448382    5.19085693
     atom    3 type  1   force =     0.68883158   -0.95921799    5.19069983
     atom    4 type  1   force =     0.68884857   -0.95931290   -5.19044046
     atom    5 type  2   force =    -0.19151480   -0.29104668  -11.34925036
     atom    6 type  2   force =    -0.19152281   -0.29115607   11.34942541
     atom    7 type  2   force =    -0.18956603    0.29244236   11.34920479
     atom    8 type  2   force =    -0.18955142    0.29226909  -11.34912808
     atom    9 type  2   force =    -1.24645637    0.00435842    3.79728744
     atom   10 type  2   force =    -1.24643335    0.00426682   -3.79783772
     The core correction contribution to forces
     atom    1 type  1   force =     0.00000000    0.00000000    0.00000000
     atom    2 type  1   force =     0.00000000    0.00000000    0.00000000
     atom    3 type  1   force =     0.00000000    0.00000000    0.00000000
     atom    4 type  1   force =     0.00000000    0.00000000    0.00000000
     atom    5 type  2   force =     0.00000000    0.00000000    0.00000000
     atom    6 type  2   force =     0.00000000    0.00000000    0.00000000
     atom    7 type  2   force =     0.00000000    0.00000000    0.00000000
     atom    8 type  2   force =     0.00000000    0.00000000    0.00000000
     atom    9 type  2   force =     0.00000000    0.00000000    0.00000000
     atom   10 type  2   force =     0.00000000    0.00000000    0.00000000
     The Hubbard contrib.    to forces
     atom    1 type  1   force =     0.00000000    0.00000000    0.00000000
     atom    2 type  1   force =     0.00000000    0.00000000    0.00000000
     atom    3 type  1   force =     0.00000000    0.00000000    0.00000000
     atom    4 type  1   force =     0.00000000    0.00000000    0.00000000
     atom    5 type  2   force =     0.00000000    0.00000000    0.00000000
     atom    6 type  2   force =     0.00000000    0.00000000    0.00000000
     atom    7 type  2   force =     0.00000000    0.00000000    0.00000000
     atom    8 type  2   force =     0.00000000    0.00000000    0.00000000
     atom    9 type  2   force =     0.00000000    0.00000000    0.00000000
     atom   10 type  2   force =     0.00000000    0.00000000    0.00000000
     The SCF correction term to forces
     atom    1 type  1   force =     0.00000005    0.00000126    0.00000248
     atom    2 type  1   force =     0.00000020   -0.00000056    0.00000189
     atom    3 type  1   force =    -0.00000017    0.00000134    0.00000288
     atom    4 type  1   force =    -0.00000015   -0.00000120    0.00000118
     atom    5 type  2   force =    -0.00000012    0.00000108    0.00000171
     atom    6 type  2   force =    -0.00000003   -0.00000140    0.00000178
     atom    7 type  2   force =     0.00000022    0.00000066    0.00000246
     atom    8 type  2   force =     0.00000004   -0.00000134    0.00000016
     atom    9 type  2   force =     0.00000004   -0.00000038    0.00000223
     atom   10 type  2   force =     0.00000003    0.00000043    0.00000176

     Total force =     0.000247     Total SCF correction =     0.000007


     entering subroutine stress ...

          total   stress  (Ry/bohr**3)                   (kbar)     P=   -0.03
   0.00000020  -0.00000000   0.00000000          0.03     -0.00      0.00
  -0.00000000  -0.00000016  -0.00000000         -0.00     -0.02     -0.00
   0.00000000  -0.00000000  -0.00000070          0.00     -0.00     -0.10

     kinetic stress (kbar)    533.66     -0.07      0.00
                               -0.07    512.63     -0.00
                                0.00     -0.00    519.29

     local   stress (kbar) -18224.79     -0.10     -0.00
                               -0.10 -18253.89     -0.00
                               -0.00     -0.00  17948.80

     nonloc. stress (kbar)    399.02     -0.02      0.00
                               -0.02    394.06     -0.00
                                0.00     -0.00    395.79

     hartree stress (kbar)   8940.84     -0.04      0.00
                               -0.04   8929.31      0.00
                                0.00      0.00  -8715.02

     exc-cor stress (kbar)   -167.65      0.00      0.00
                                0.00   -167.26     -0.00
                                0.00     -0.00   -168.42

     corecor stress (kbar)      0.00      0.00      0.00
                                0.00      0.00      0.00
                                0.00      0.00      0.00

     ewald   stress (kbar)   8518.95      0.23      0.00
                                0.23   8585.12      0.00
                                0.00      0.00  -9980.54

     hubbard stress (kbar)      0.00      0.00      0.00
                                0.00      0.00      0.00
                                0.00      0.00      0.00

     london  stress (kbar)      0.00      0.00      0.00
                                0.00      0.00      0.00
                                0.00      0.00      0.00

     XDM     stress (kbar)      0.00      0.00      0.00
                                0.00      0.00      0.00
                                0.00      0.00      0.00

     dft-nl  stress (kbar)      0.00      0.00      0.00
                                0.00      0.00      0.00
                                0.00      0.00      0.00

     TS-vdW  stress (kbar)      0.00      0.00      0.00
                                0.00      0.00      0.00
                                0.00      0.00      0.00



     Writing output data file bn.save
 
     init_run     :    123.63s CPU    127.67s WALL (       2 calls)
     electrons    :  24292.93s CPU  24402.11s WALL (      30 calls)
     update_pot   :     65.73s CPU     67.46s WALL (      28 calls)
     forces       :    199.20s CPU    199.41s WALL (      30 calls)
     stress       :   1370.65s CPU   1374.88s WALL (      30 calls)

     Called by init_run:
     wfcinit      :    120.66s CPU    124.63s WALL (       2 calls)
     potinit      :      1.38s CPU      1.39s WALL (       2 calls)

     Called by electrons:
     c_bands      :  20952.00s CPU  21052.65s WALL (     484 calls)
     sum_band     :   3273.97s CPU   3279.92s WALL (     484 calls)
     v_of_rho     :     45.08s CPU     45.31s WALL (     506 calls)
     v_h          :      3.65s CPU      3.66s WALL (     506 calls)
     v_xc         :     41.43s CPU     41.64s WALL (     506 calls)
     mix_rho      :     19.54s CPU     19.56s WALL (     484 calls)

     Called by c_bands:
     init_us_2    :    782.49s CPU    796.02s WALL (   76220 calls)
     cegterg      :  19815.34s CPU  19895.95s WALL (   35816 calls)

     Called by sum_band:

     Called by *egterg:
     h_psi        :  14617.72s CPU  14644.40s WALL (  133368 calls)
     g_psi        :    109.15s CPU    109.08s WALL (   97404 calls)
     cdiaghg      :    665.86s CPU    667.13s WALL (  130556 calls)
     cegterg:over :   1211.41s CPU   1211.95s WALL (   97404 calls)
     cegterg:upda :   1707.19s CPU   1721.26s WALL (   97404 calls)
     cegterg:last :    470.85s CPU    471.26s WALL (   37624 calls)
     cdiaghg:chol :     32.28s CPU     32.95s WALL (  130556 calls)
     cdiaghg:inve :     21.71s CPU     22.05s WALL (  130556 calls)
     cdiaghg:para :     68.90s CPU     68.24s WALL (  261112 calls)

     Called by h_psi:
     h_psi:vloc   :  12160.65s CPU  12184.71s WALL (  133368 calls)
     h_psi:vnl    :   2187.93s CPU   2190.29s WALL (  133368 calls)
     add_vuspsi   :   1106.40s CPU   1108.05s WALL (  133368 calls)

     General routines
     calbec       :   1309.01s CPU   1309.97s WALL (  144468 calls)
     fft          :     31.13s CPU     31.17s WALL (    5820 calls)
     fftw         :  12257.92s CPU  12262.47s WALL ( 7922182 calls)
 
     Parallel routines
     fft_scatter  :   4241.93s CPU   4232.88s WALL ( 7928002 calls)
 
     PWSCF        :     7h14m CPU        7h16m WALL

 
   This run was terminated on:   1:13:14  26Jun2018            

=------------------------------------------------------------------------------=
   JOB DONE.
=------------------------------------------------------------------------------=
